 Gaussian 16, Revision B.01,
 Gaussian 16:  EM64L-G16RevB.01 20-Dec-2017

 ----------------------------------------------------------------------
 #N PBE1PBE/6-311+G(2d,p) NMR SCRF=(PCM,Solvent=chloroform) Geom=Connec
 tivity
 ----------------------------------------------------------------------

 -------------------------
 acetal of hydrobenzoin C2
 -------------------------
 Symbolic Z-matrix:
 Charge =  0 Multiplicity = 1

                         Standard orientation:
 ---------------------------------------------------------------------
 Center     Atomic      Atomic             Coordinates (Angstroms)
 Number     Number       Type             X           Y           Z
 ---------------------------------------------------------------------
      1          6           0       -0.639254    0.439975    0.589758
      2          6           0       -0.664327    1.535903   -0.442785
      3          6           0        0.000000    2.751904   -0.227407
      4          6           0        0.011632    3.735391   -1.218807
      5          6           0       -0.635076    3.514294   -2.438789
      6          6           0       -1.301189    2.305774   -2.658913
      7          6           0       -1.319367    1.325208   -1.663896
      8          1           0       -1.847101    0.383225   -1.836209
      9          1           0       -1.815867    2.127626   -3.605786
     10          1           0       -0.626553    4.285321   -3.212442
     11          1           0        0.525072    4.682405   -1.036597
     12          1           0        0.488503    2.927830    0.733020
     13          8           0       -0.616055    0.978191    1.914831
     14          6           0       -0.000000    0.000000    2.780358
     15          8           0        0.616055   -0.978191    1.914831
     16          6           0        0.639254   -0.439975    0.589758
     17          6           0        0.664327   -1.535903   -0.442785
     18          6           0        1.319367   -1.325208   -1.663896
     19          6           0        1.301189   -2.305774   -2.658913
     20          6           0        0.635076   -3.514294   -2.438789
     21          6           0       -0.011632   -3.735391   -1.218807
     22          6           0       -0.000000   -2.751904   -0.227407
     23          1           0       -0.488503   -2.927830    0.733020
     24          1           0       -0.525072   -4.682405   -1.036597
     25          1           0        0.626553   -4.285321   -3.212442
     26          1           0        1.815867   -2.127626   -3.605786
     27          1           0        1.847101   -0.383225   -1.836209
     28          1           0        1.515749    0.223924    0.451805
     29          6           0        1.052022    0.714928    3.620805
     30          1           0        0.587263    1.526408    4.199063
     31          1           0        1.525674    0.009183    4.317631
     32          1           0        1.825682    1.145038    2.970001
     33          6           0       -1.052022   -0.714928    3.620805
     34          1           0       -1.525674   -0.009183    4.317631
     35          1           0       -1.825682   -1.145038    2.970001
     36          1           0       -0.587263   -1.526408    4.199063
     37          1           0       -1.515749   -0.223924    0.451805
 ---------------------------------------------------------------------

 SCF Done:  E(RPBE1PBE) =  -808.379159914     A.U. after   13 cycles

      1  C    Isotropic =    95.2267   Anisotropy =    40.1176

      2  C    Isotropic =    43.9979   Anisotropy =   188.7865

      3  C    Isotropic =    56.1016   Anisotropy =   189.7468

      4  C    Isotropic =    53.0869   Anisotropy =   187.2443

      5  C    Isotropic =    53.5860   Anisotropy =   186.1511

      6  C    Isotropic =    54.1331   Anisotropy =   185.4808

      7  C    Isotropic =    53.5820   Anisotropy =   175.8513

      8  H    Isotropic =    24.6667   Anisotropy =     9.2408

      9  H    Isotropic =    24.0309   Anisotropy =     5.6337

     10  H    Isotropic =    23.8270   Anisotropy =     4.3498

     11  H    Isotropic =    23.6888   Anisotropy =     5.7351

     12  H    Isotropic =    23.3289   Anisotropy =    11.1222

     13  O    Isotropic =   190.4560   Anisotropy =   100.6947

     14  C    Isotropic =    71.6557   Anisotropy =    44.2088

     15  O    Isotropic =   190.4560   Anisotropy =   100.6947

     16  C    Isotropic =    95.2267   Anisotropy =    40.1176

     17  C    Isotropic =    43.9979   Anisotropy =   188.7865

     18  C    Isotropic =    53.5820   Anisotropy =   175.8513

     19  C    Isotropic =    54.1331   Anisotropy =   185.4808

     20  C    Isotropic =    53.5860   Anisotropy =   186.1511

     21  C    Isotropic =    53.0869   Anisotropy =   187.2443

     22  C    Isotropic =    56.1016   Anisotropy =   189.7468

     23  H    Isotropic =    23.3289   Anisotropy =    11.1222

     24  H    Isotropic =    23.6888   Anisotropy =     5.7351

     25  H    Isotropic =    23.8270   Anisotropy =     4.3498

     26  H    Isotropic =    24.0309   Anisotropy =     5.6337

     27  H    Isotropic =    24.6667   Anisotropy =     9.2408

     28  H    Isotropic =    26.7828   Anisotropy =     5.5124

     29  C    Isotropic =   159.6567   Anisotropy =    41.0256

     30  H    Isotropic =    29.8740   Anisotropy =     8.5029

     31  H    Isotropic =    29.9994   Anisotropy =     8.9650

     32  H    Isotropic =    29.7783   Anisotropy =     7.1855

     33  C    Isotropic =   159.6567   Anisotropy =    41.0256

     34  H    Isotropic =    29.9994   Anisotropy =     8.9650

     35  H    Isotropic =    29.7783   Anisotropy =     7.1855

     36  H    Isotropic =    29.8740   Anisotropy =     8.5029

     37  H    Isotropic =    26.7828   Anisotropy =     5.5124

 The electronic state is 1-A.
 Alpha  occ. eigenvalues --  -19.22172 -19.22172 -10.33567 -10.29011 -10.28988
 Alpha  occ. eigenvalues --  -10.24366 -10.24366 -10.23410 -10.23410 -10.23340
 Alpha  occ. eigenvalues --  -10.23340 -10.23320 -10.23320 -10.23236 -10.23236
 Alpha  occ. eigenvalues --  -10.23199 -10.23199 -10.21462 -10.21461  -1.12305
 Alpha  occ. eigenvalues --   -1.03135  -0.89529  -0.88753  -0.84087  -0.78710
 Alpha  occ. eigenvalues --   -0.78463  -0.77414  -0.77380  -0.72142  -0.72071
 Alpha  occ. eigenvalues --   -0.67239  -0.63312  -0.63265  -0.61407  -0.60144
 Alpha  occ. eigenvalues --   -0.59844  -0.54385  -0.54353  -0.53293  -0.50096
 Alpha  occ. eigenvalues --   -0.48420  -0.47924  -0.46748  -0.46747  -0.45562
 Alpha  occ. eigenvalues --   -0.45150  -0.44105  -0.43698  -0.43486  -0.43305
 Alpha  occ. eigenvalues --   -0.40778  -0.40620  -0.40292  -0.39012  -0.38753
 Alpha  occ. eigenvalues --   -0.37916  -0.37876  -0.36662  -0.36195  -0.35752
 Alpha  occ. eigenvalues --   -0.35552  -0.34889  -0.30182  -0.28187  -0.27358
 Alpha  occ. eigenvalues --   -0.26949  -0.26778  -0.25847
 Alpha virt. eigenvalues --   -0.02179  -0.01896  -0.01595  -0.01219   0.00762
 Alpha virt. eigenvalues --    0.01886   0.01960   0.02332   0.03729   0.03978
 Alpha virt. eigenvalues --    0.04115   0.04227   0.05441   0.05528   0.06026

 Mulliken charges:
               1
     1  C    0.035211
     2  C    0.779316
     3  C   -0.221903
     4  C   -0.312147
     5  C   -0.179215
     6  C   -0.222576
     7  C   -0.651328
     8  H    0.129660
     9  H    0.124877
    10  H    0.126357
    11  H    0.124767
    12  H    0.149402
    13  O   -0.227345
    14  C    0.317924
    15  O   -0.227345
    16  C    0.035211
    17  C    0.779316
    18  C   -0.651328
    19  C   -0.222576
    20  C   -0.179215
    21  C   -0.312147
    22  C   -0.221903
    23  H    0.149402
    24  H    0.124767
    25  H    0.126357
    26  H    0.124877
    27  H    0.129660
    28  H    0.124489
    29  C   -0.470069
    30  H    0.180729
    31  H    0.172063
    32  H    0.178748
    33  C   -0.470069
    34  H    0.172063
    35  H    0.178748
    36  H    0.180729
    37  H    0.124489
 Sum of Mulliken charges =  -0.00000

 Dipole moment (field-independent basis, Debye):
    X=              0.0000    Y=              0.0000    Z=             -0.6827  Tot=              0.6827
 Quadrupole moment (field-independent basis, Debye-Ang):
   XX=           -114.3333   YY=           -107.3075   ZZ=           -100.2583
   XY=              8.0896   XZ=             -0.0000   YZ=              0.0000

 Normal termination of Gaussian 16 at Tue Mar 22 09:39:21 2022.
