 Gaussian 16, Revision B.01,
 Gaussian 16:  EM64L-G16RevB.01 20-Dec-2017

 ----------------------------------------------------------------------
 #N PBE1PBE/6-311+G(2d,p) NMR SCRF=(PCM,Solvent=chloroform) Geom=Connec
 tivity
 ----------------------------------------------------------------------

 ----------------------
 acetal of hydrobenzoin
 ----------------------
 Symbolic Z-matrix:
 Charge =  0 Multiplicity = 1

                         Standard orientation:
 ---------------------------------------------------------------------
 Center     Atomic      Atomic             Coordinates (Angstroms)
 Number     Number       Type             X           Y           Z
 ---------------------------------------------------------------------
      1          6           0        0.939167    0.400606   -1.054522
      2          6           0       -0.093167    1.410311   -0.597238
      3          6           0       -1.277783    1.564142   -1.332135
      4          6           0       -2.262531    2.463289   -0.919822
      5          6           0       -2.070244    3.232742    0.231624
      6          6           0       -0.885794    3.097700    0.960261
      7          6           0        0.096460    2.193021    0.547750
      8          1           0        1.031727    2.102542    1.102079
      9          1           0       -0.721642    3.704914    1.853736
     10          1           0       -2.836593    3.941634    0.552990
     11          1           0       -3.180234    2.568996   -1.502938
     12          1           0       -1.432527    0.970851   -2.238109
     13          8           0        2.250816    0.750454   -0.598611
     14          6           0        2.808518   -0.346707    0.160162
     15          8           0        1.686924   -1.140570    0.552784
     16          6           0        0.756730   -1.077527   -0.529475
     17          6           0       -0.619012   -1.497399   -0.085220
     18          6           0       -1.453400   -2.177698   -0.982238
     19          6           0       -2.748831   -2.547807   -0.612044
     20          6           0       -3.217973   -2.253905    0.670602
     21          6           0       -2.384976   -1.589683    1.576374
     22          6           0       -1.095236   -1.209635    1.201173
     23          1           0       -0.443546   -0.694239    1.908133
     24          1           0       -2.743690   -1.363935    2.583225
     25          1           0       -4.227236   -2.548470    0.966762
     26          1           0       -3.387550   -3.077082   -1.322808
     27          1           0       -1.081862   -2.426523   -1.980981
     28          1           0        1.079341   -1.756146   -1.342800
     29          6           0        3.783410   -1.139023   -0.717396
     30          1           0        4.600539   -0.483537   -1.049706
     31          1           0        4.209350   -1.979602   -0.150978
     32          1           0        3.282059   -1.534955   -1.611464
     33          6           0        3.473958    0.198151    1.413563
     34          1           0        4.276805    0.895492    1.138075
     35          1           0        2.735548    0.725373    2.031538
     36          1           0        3.906995   -0.623612    2.000716
     37          1           0        0.934825    0.375757   -2.159375
 ---------------------------------------------------------------------

 SCF Done:  E(RPBE1PBE) =  -808.374640547     A.U. after   13 cycles

      1  C    Isotropic =    99.5967   Anisotropy =    54.3237

      2  C    Isotropic =    40.2604   Anisotropy =   193.5447

      3  C    Isotropic =    54.8527   Anisotropy =   179.1746

      4  C    Isotropic =    54.5598   Anisotropy =   186.2465

      5  C    Isotropic =    55.1616   Anisotropy =   184.7381

      6  C    Isotropic =    54.3032   Anisotropy =   185.8195

      7  C    Isotropic =    55.5478   Anisotropy =   190.4833

      8  H    Isotropic =    23.5240   Anisotropy =    10.7889

      9  H    Isotropic =    23.8634   Anisotropy =     5.6368

     10  H    Isotropic =    24.1383   Anisotropy =     3.8256

     11  H    Isotropic =    24.3582   Anisotropy =     5.2295

     12  H    Isotropic =    24.7719   Anisotropy =     8.3903

     13  O    Isotropic =   197.1711   Anisotropy =   108.2643

     14  C    Isotropic =    71.5784   Anisotropy =    43.0292

     15  O    Isotropic =   193.6323   Anisotropy =   107.1909

     16  C    Isotropic =    99.5201   Anisotropy =    56.6470

     17  C    Isotropic =    43.8715   Anisotropy =   191.2166

     18  C    Isotropic =    53.7274   Anisotropy =   172.0088

     19  C    Isotropic =    54.4746   Anisotropy =   185.0529

     20  C    Isotropic =    54.2205   Anisotropy =   186.2486

     21  C    Isotropic =    53.9407   Anisotropy =   188.4032

     22  C    Isotropic =    54.2718   Anisotropy =   195.1531

     23  H    Isotropic =    24.3048   Anisotropy =     9.4600

     24  H    Isotropic =    24.2587   Anisotropy =     6.0490

     25  H    Isotropic =    24.0939   Anisotropy =     3.9034

     26  H    Isotropic =    23.9390   Anisotropy =     4.7567

     27  H    Isotropic =    23.9271   Anisotropy =     8.5759

     28  H    Isotropic =    25.5984   Anisotropy =     8.1915

     29  C    Isotropic =   162.9938   Anisotropy =    39.9397

     30  H    Isotropic =    30.0818   Anisotropy =     8.5024

     31  H    Isotropic =    30.2695   Anisotropy =     9.5949

     32  H    Isotropic =    29.4580   Anisotropy =     7.6933

     33  C    Isotropic =   159.8257   Anisotropy =    42.4169

     34  H    Isotropic =    29.7200   Anisotropy =     8.5773

     35  H    Isotropic =    29.6621   Anisotropy =     7.6691

     36  H    Isotropic =    29.7788   Anisotropy =     8.8380

     37  H    Isotropic =    25.9107   Anisotropy =     7.0643

 The electronic state is 1-A.
 Alpha  occ. eigenvalues --  -19.22562 -19.21901 -10.33614 -10.29293 -10.29113
 Alpha  occ. eigenvalues --  -10.24272 -10.23851 -10.23392 -10.23266 -10.23185
 Alpha  occ. eigenvalues --  -10.23128 -10.23083 -10.23027 -10.23023 -10.23015
 Alpha  occ. eigenvalues --  -10.22912 -10.22784 -10.21616 -10.21561  -1.12479
 Alpha  occ. eigenvalues --   -1.03216  -0.89355  -0.88437  -0.83838  -0.78585
 Alpha  occ. eigenvalues --   -0.78266  -0.77316  -0.77056  -0.72910  -0.71543
 Alpha  occ. eigenvalues --   -0.67194  -0.63403  -0.62688  -0.61648  -0.60017
 Alpha  occ. eigenvalues --   -0.59668  -0.54642  -0.53604  -0.51967  -0.50574
 Alpha  occ. eigenvalues --   -0.49356  -0.48150  -0.47079  -0.46452  -0.45501
 Alpha  occ. eigenvalues --   -0.45153  -0.43839  -0.43538  -0.43222  -0.42794
 Alpha  occ. eigenvalues --   -0.41126  -0.40558  -0.40290  -0.39108  -0.38362
 Alpha  occ. eigenvalues --   -0.38191  -0.37022  -0.36671  -0.36049  -0.35598
 Alpha  occ. eigenvalues --   -0.35285  -0.35041  -0.29721  -0.28657  -0.27213
 Alpha  occ. eigenvalues --   -0.26729  -0.26286  -0.25782
 Alpha virt. eigenvalues --   -0.02173  -0.01784  -0.01353  -0.00806   0.00558
 Alpha virt. eigenvalues --    0.01804   0.01955   0.02506   0.03760   0.03885
 Alpha virt. eigenvalues --    0.04099   0.04500   0.05274   0.05879   0.05926

 Mulliken charges:
               1
     1  C   -0.136993
     2  C    1.226342
     3  C   -0.687236
     4  C   -0.194099
     5  C   -0.164201
     6  C   -0.313477
     7  C   -0.375184
     8  H    0.126082
     9  H    0.122457
    10  H    0.123811
    11  H    0.123204
    12  H    0.126091
    13  O   -0.271560
    14  C    0.504207
    15  O   -0.196156
    16  C   -0.310487
    17  C    1.190863
    18  C   -0.706661
    19  C   -0.113058
    20  C   -0.173855
    21  C   -0.223007
    22  C   -0.601683
    23  H    0.150879
    24  H    0.124098
    25  H    0.125412
    26  H    0.123686
    27  H    0.123530
    28  H    0.132818
    29  C   -0.651784
    30  H    0.177317
    31  H    0.175756
    32  H    0.171737
    33  C   -0.407050
    34  H    0.182401
    35  H    0.171262
    36  H    0.175534
    37  H    0.149004
 Sum of Mulliken charges =  -0.00000

 Dipole moment (field-independent basis, Debye):
    X=             -0.2869    Y=             -0.7529    Z=             -0.7479  Tot=              1.0993
 Quadrupole moment (field-independent basis, Debye-Ang):
   XX=           -100.4923   YY=           -115.8614   ZZ=           -104.8448
   XY=             -2.1524   XZ=              1.8636   YZ=              8.5859

 Normal termination of Gaussian 16 at Mon Mar 21 16:40:23 2022.
