 Gaussian 16, Revision B.01,
 Gaussian 16:  EM64L-G16RevB.01 20-Dec-2017

 --------------------------------------------------
 #N PBEPBE/6-311+G(2d,p) OPT FREQ Geom=Connectivity
 --------------------------------------------------

 ----------
 C12H17O3N3
 ----------
 Symbolic Z-matrix:
 Charge =  0 Multiplicity = 1

 SCF Done:  E(RPBE-PBE) =  -856.609741012     A.U. after   19 cycles
 SCF Done:  E(RPBE-PBE) =  -856.610100940     A.U. after   11 cycles
 SCF Done:  E(RPBE-PBE) =  -856.609747055     A.U. after   14 cycles
 SCF Done:  E(RPBE-PBE) =  -856.610149390     A.U. after   14 cycles
 SCF Done:  E(RPBE-PBE) =  -856.610132742     A.U. after   10 cycles
 SCF Done:  E(RPBE-PBE) =  -856.610124974     A.U. after   10 cycles
 SCF Done:  E(RPBE-PBE) =  -856.610153089     A.U. after   10 cycles
 SCF Done:  E(RPBE-PBE) =  -856.610163445     A.U. after   10 cycles
 SCF Done:  E(RPBE-PBE) =  -856.610167585     A.U. after   10 cycles
 SCF Done:  E(RPBE-PBE) =  -856.610170047     A.U. after   10 cycles
 SCF Done:  E(RPBE-PBE) =  -856.610170628     A.U. after    9 cycles
 SCF Done:  E(RPBE-PBE) =  -856.610170824     A.U. after    9 cycles
 SCF Done:  E(RPBE-PBE) =  -856.610170839     A.U. after    7 cycles
 Optimization completed.
    -- Stationary point found.
 Normal termination of Gaussian 16 at Thu Nov 11 11:33:56 2021.

 ----------------------------------------------------------------------
 #N Geom=AllCheck Guess=TCheck SCRF=Check GenChk RPBEPBE/6-311+G(2d,p)
 Freq
 ----------------------------------------------------------------------

 Structure from the checkpoint file:  "/scratch/webmo-4695/786/Gau-134407.chk"
 ----------
 C12H17O3N3
 ----------
 Charge =  0 Multiplicity = 1

                         Standard orientation:
 ---------------------------------------------------------------------
 Center     Atomic      Atomic             Coordinates (Angstroms)
 Number     Number       Type             X           Y           Z
 ---------------------------------------------------------------------
      1          6           0        2.976461   -1.187332   -0.470845
      2          6           0        1.469685   -1.490129   -0.398747
      3          7           0        0.710778   -0.349681   -0.261798
      4          6           0       -0.673047   -0.202541   -0.182918
      5          6           0       -1.565473   -1.291463   -0.269533
      6          6           0       -2.935055   -1.066734   -0.184031
      7          6           0       -3.418962    0.232000   -0.013530
      8          7           0       -4.867502    0.459872    0.075972
      9          8           0       -5.612838   -0.526649   -0.005277
     10          8           0       -5.258584    1.626895    0.227739
     11          6           0       -2.549775    1.322877    0.073868
     12          6           0       -1.183358    1.102533   -0.011124
     13          1           0       -0.492562    1.947166    0.053939
     14          1           0       -2.960070    2.323657    0.206364
     15          1           0       -3.643918   -1.892228   -0.248127
     16          1           0       -1.167355   -2.295602   -0.401375
     17          1           0        1.310286    0.482329   -0.160438
     18          8           0        1.043090   -2.635991   -0.496851
     19          7           0        3.356125    0.178261   -0.083533
     20          6           0        4.250541    0.818309   -1.070526
     21          6           0        4.310422    2.338871   -0.947157
     22          1           0        4.918427    2.752887   -1.765155
     23          1           0        3.303071    2.776495   -1.013983
     24          1           0        4.767374    2.671719   -0.004318
     25          1           0        5.276259    0.392895   -1.009194
     26          1           0        3.862290    0.563714   -2.068653
     27          6           0        3.921458    0.221323    1.279959
     28          6           0        2.927337   -0.158297    2.374030
     29          1           0        3.418975   -0.096744    3.356017
     30          1           0        2.063356    0.522509    2.384760
     31          1           0        2.551439   -1.185963    2.261414
     32          1           0        4.814604   -0.440018    1.339132
     33          1           0        4.274855    1.246361    1.461344
     34          1           0        3.486993   -1.961919    0.129744
     35          1           0        3.265418   -1.376958   -1.517522
 ---------------------------------------------------------------------

 SCF Done:  E(RPBE-PBE) =  -856.610170839     A.U. after    1 cycles

 The electronic state is 1-A.
 Alpha  occ. eigenvalues --  -18.77157 -18.77149 -18.73608 -14.19936 -14.04065
 Alpha  occ. eigenvalues --  -14.01502  -9.99789  -9.96085  -9.94352  -9.93592
 Alpha  occ. eigenvalues --   -9.93266  -9.93036  -9.91584  -9.91485  -9.91294
 Alpha  occ. eigenvalues --   -9.90499  -9.89506  -9.89309  -1.12226  -0.97159
 Alpha  occ. eigenvalues --   -0.95970  -0.88954  -0.87133  -0.80995  -0.73791
 Alpha  occ. eigenvalues --   -0.71757  -0.70635  -0.70357  -0.66021  -0.63161
 Alpha  occ. eigenvalues --   -0.58983  -0.58827  -0.56161  -0.54547  -0.52613
 Alpha  occ. eigenvalues --   -0.51153  -0.49474  -0.47558  -0.47077  -0.46299
 Alpha  occ. eigenvalues --   -0.45554  -0.43732  -0.42523  -0.41898  -0.41651
 Alpha  occ. eigenvalues --   -0.40842  -0.40559  -0.39853  -0.38941  -0.37682
 Alpha  occ. eigenvalues --   -0.37167  -0.36716  -0.35807  -0.34928  -0.34073
 Alpha  occ. eigenvalues --   -0.33145  -0.33134  -0.32856  -0.31581  -0.29654
 Alpha  occ. eigenvalues --   -0.27452  -0.25988  -0.25596  -0.24077  -0.23898
 Alpha  occ. eigenvalues --   -0.22526  -0.21239
 Alpha virt. eigenvalues --   -0.12172  -0.06690  -0.05867  -0.03235  -0.01994
 Alpha virt. eigenvalues --   -0.01616  -0.01036  -0.00500   0.00511   0.00946
 Alpha virt. eigenvalues --    0.01698   0.02043   0.02240   0.02718   0.02869

 Mulliken charges:
               1
     1  C   -0.780945
     2  C    0.667130
     3  N   -0.185804
     4  C    0.626641
     5  C   -0.087739
     6  C   -0.341551
     7  C    0.376801
     8  N   -0.097666
     9  O   -0.116811
    10  O   -0.117241
    11  C   -0.418848
    12  C   -0.405625
    13  H    0.102122
    14  H    0.145332
    15  H    0.146609
    16  H    0.164842
    17  H    0.279414
    18  O   -0.437610
    19  N    0.002896
    20  C   -0.029934
    21  C   -0.551054
    22  H    0.150774
    23  H    0.147931
    24  H    0.142971
    25  H    0.125360
    26  H    0.125751
    27  C   -0.179499
    28  C   -0.517896
    29  H    0.149254
    30  H    0.154256
    31  H    0.163878
    32  H    0.126668
    33  H    0.123291
    34  H    0.179455
    35  H    0.166848
 Sum of Mulliken charges =  -0.00000

 Dipole moment (field-independent basis, Debye):
    X=              8.4764    Y=              2.3711    Z=              0.1166  Tot=              8.8025
 Quadrupole moment (field-independent basis, Debye-Ang):
   XX=           -130.2355   YY=           -114.1490   ZZ=           -106.0261
   XY=              8.6163   XZ=              1.0872   YZ=             -1.6196

  Exact polarizability: 301.410 -13.996 189.736  -7.626   4.428 131.138
 Approx polarizability: 513.282 -36.120 418.379 -16.458  22.477 221.666

                      1                      2                      3
                      A                      A                      A
 Frequencies --     20.4912                32.2520                40.8926
 Red. masses --      4.1059                 4.2255                 4.3209
 Frc consts  --      0.0010                 0.0026                 0.0043
 IR Inten    --      0.6556                 0.0422                 0.1439

                      4                      5                      6
                      A                      A                      A
 Frequencies --     58.0068                66.1154                71.8110
 Red. masses --      5.4538                 4.3534                 5.7355
 Frc consts  --      0.0108                 0.0112                 0.0174
 IR Inten    --      1.7473                 0.5490                 3.5040

                      7                      8                      9
                      A                      A                      A
 Frequencies --     83.7580               107.6973               133.2988
 Red. masses --      2.3026                 1.9905                 4.0035
 Frc consts  --      0.0095                 0.0136                 0.0419
 IR Inten    --      0.2025                 1.4215                 2.9764

                     10                     11                     12
                      A                      A                      A
 Frequencies --    150.3996               211.3233               226.8624
 Red. masses --      6.9366                 1.7174                 2.2155
 Frc consts  --      0.0924                 0.0452                 0.0672
 IR Inten    --      1.1469                 3.1706                 1.1400

                     13                     14                     15
                      A                      A                      A
 Frequencies --    236.4547               263.8036               282.8716
 Red. masses --      2.5674                 1.8589                 1.7377
 Frc consts  --      0.0846                 0.0762                 0.0819
 IR Inten    --      2.0676                 0.8880                 0.2264

                     16                     17                     18
                      A                      A                      A
 Frequencies --    303.1557               321.1855               370.4121
 Red. masses --      6.3313                 4.8517                 5.0051
 Frc consts  --      0.3428                 0.2949                 0.4046
 IR Inten    --      0.2611                 1.5759                 7.3031

                     19                     20                     21
                      A                      A                      A
 Frequencies --    379.7876               409.5587               412.2961
 Red. masses --      3.3768                 3.0526                 2.9310
 Frc consts  --      0.2870                 0.3017                 0.2936
 IR Inten    --      3.6426                 0.1472                 8.0951

                     22                     23                     24
                      A                      A                      A
 Frequencies --    441.0863               485.1463               516.6163
 Red. masses --      2.6812                 2.9340                 6.0914
 Frc consts  --      0.3074                 0.4069                 0.9579
 IR Inten    --      2.9720                10.6123                 1.4503

                     25                     26                     27
                      A                      A                      A
 Frequencies --    525.3934               565.7337               574.6188
 Red. masses --      3.7695                 3.8946                 4.5276
 Frc consts  --      0.6131                 0.7344                 0.8808
 IR Inten    --      0.3623                 1.2190                12.6971

                     28                     29                     30
                      A                      A                      A
 Frequencies --    621.7020               681.4786               693.8407
 Red. masses --      7.0863                 3.5841                 5.6915
 Frc consts  --      1.6137                 0.9807                 1.6143
 IR Inten    --      1.1882                 6.8260                 7.1861

                     31                     32                     33
                      A                      A                      A
 Frequencies --    745.9241               766.7775               771.2956
 Red. masses --      5.0301                 1.5125                 1.1788
 Frc consts  --      1.6490                 0.5239                 0.4132
 IR Inten    --     27.6901                31.1338                 8.3203

                     34                     35                     36
                      A                      A                      A
 Frequencies --    784.5972               796.9279               804.7025
 Red. masses --      1.1708                 1.7402                 1.3371
 Frc consts  --      0.4246                 0.6512                 0.5101
 IR Inten    --      1.4324                 9.3166                22.4975

                     37                     38                     39
                      A                      A                      A
 Frequencies --    825.2461               845.4501               858.0669
 Red. masses --      5.3042                 1.6727                 5.1088
 Frc consts  --      2.1283                 0.7044                 2.2162
 IR Inten    --     12.1229                27.2844                19.1595

                     40                     41                     42
                      A                      A                      A
 Frequencies --    883.4278               930.7583               935.5742
 Red. masses --      2.2108                 1.3364                 5.2734
 Frc consts  --      1.0166                 0.6821                 2.7195
 IR Inten    --     11.5155                 0.8050                 3.0832

                     43                     44                     45
                      A                      A                      A
 Frequencies --    955.6645               959.3278               988.8265
 Red. masses --      2.0125                 1.3288                 2.2896
 Frc consts  --      1.0829                 0.7205                 1.3190
 IR Inten    --      8.1475                 0.2714                 9.1648

                     46                     47                     48
                      A                      A                      A
 Frequencies --    996.3737              1047.0730              1056.2474
 Red. masses --      2.6867                 2.4496                 2.6889
 Frc consts  --      1.5715                 1.5823                 1.7675
 IR Inten    --      0.0483                18.7397                25.4953

                     49                     50                     51
                      A                      A                      A
 Frequencies --   1075.5417              1088.9805              1096.6063
 Red. masses --      1.7491                 2.4209                 1.2742
 Frc consts  --      1.1921                 1.6915                 0.9028
 IR Inten    --     33.7236               120.9206                24.2148

                     52                     53                     54
                      A                      A                      A
 Frequencies --   1103.7273              1137.2093              1157.9508
 Red. masses --      2.1674                 1.7717                 1.4943
 Frc consts  --      1.5556                 1.3500                 1.1805
 IR Inten    --     35.5929                22.4233                33.6888

                     55                     56                     57
                      A                      A                      A
 Frequencies --   1169.4814              1186.7916              1237.2236
 Red. masses --      2.1766                 2.4721                 1.2967
 Frc consts  --      1.7539                 2.0515                 1.1695
 IR Inten    --     14.5060                38.0033                12.0286

                     58                     59                     60
                      A                      A                      A
 Frequencies --   1247.2394              1274.5196              1275.4758
 Red. masses --      2.3907                 1.1874                 1.3527
 Frc consts  --      2.1912                 1.1364                 1.2965
 IR Inten    --     33.6797                28.4771                66.5846

                     61                     62                     63
                      A                      A                      A
 Frequencies --   1287.4187              1298.2978              1301.2870
 Red. masses --      1.3510                 3.8798                 1.4855
 Frc consts  --      1.3193                 3.8531                 1.4820
 IR Inten    --     77.6849               560.4865               139.3604

                     64                     65                     66
                      A                      A                      A
 Frequencies --   1343.7716              1353.4119              1354.7917
 Red. masses --      1.2788                 1.3558                 5.8263
 Frc consts  --      1.3605                 1.4632                 6.3007
 IR Inten    --      4.3210                20.0562                23.6724

                     67                     68                     69
                      A                      A                      A
 Frequencies --   1363.5975              1369.0471              1405.1816
 Red. masses --      1.3087                 1.3243                 2.5851
 Frc consts  --      1.4338                 1.4625                 3.0074
 IR Inten    --     16.3225                 9.9176                60.1364

                     70                     71                     72
                      A                      A                      A
 Frequencies --   1408.8397              1435.9619              1438.9655
 Red. masses --      1.2631                 1.0513                 1.0532
 Frc consts  --      1.4771                 1.2772                 1.2849
 IR Inten    --      0.8530                 1.6961                 4.0405

                     73                     74                     75
                      A                      A                      A
 Frequencies --   1442.0063              1446.7325              1452.8125
 Red. masses --      1.0527                 1.0457                 1.0671
 Frc consts  --      1.2897                 1.2895                 1.3271
 IR Inten    --      9.9896                16.1252                 6.1865

                     76                     77                     78
                      A                      A                      A
 Frequencies --   1460.9380              1472.6408              1491.7460
 Red. masses --      1.1271                 2.1788                 5.5152
 Frc consts  --      1.4174                 2.7839                 7.2310
 IR Inten    --      1.6647                51.2302               370.9012

                     79                     80                     81
                      A                      A                      A
 Frequencies --   1510.0863              1586.6743              1594.4509
 Red. masses --      3.3363                 7.0939                 5.9454
 Frc consts  --      4.4824                10.5223                 8.9054
 IR Inten    --    551.2010                62.9987               134.4280

                     82                     83                     84
                      A                      A                      A
 Frequencies --   1699.1797              2857.6398              2866.9816
 Red. masses --      9.9038                 1.0733                 1.0720
 Frc consts  --     16.8473                 5.1642                 5.1915
 IR Inten    --    241.1737                59.2129               126.7738

                     85                     86                     87
                      A                      A                      A
 Frequencies --   2946.4171              2973.5732              2973.8106
 Red. masses --      1.0639                 1.0357                 1.0356
 Frc consts  --      5.4420                 5.3959                 5.3959
 IR Inten    --     26.4145                18.4225                12.5037

                     88                     89                     90
                      A                      A                      A
 Frequencies --   2994.6725              3004.1446              3014.6763
 Red. masses --      1.0910                 1.0942                 1.0871
 Frc consts  --      5.7648                 5.8184                 5.8211
 IR Inten    --      3.5173                12.4732                 7.9297

                     91                     92                     93
                      A                      A                      A
 Frequencies --   3044.2856              3045.3492              3045.8160
 Red. masses --      1.1008                 1.1005                 1.1021
 Frc consts  --      6.0108                 6.0135                 6.0241
 IR Inten    --     22.7972                 9.6150                36.0747

                     94                     95                     96
                      A                      A                      A
 Frequencies --   3048.4512              3099.0247              3143.0998
 Red. masses --      1.0998                 1.0896                 1.0895
 Frc consts  --      6.0218                 6.1653                 6.3416
 IR Inten    --     41.3470                 7.9959                 2.7157

                     97                     98                     99
                      A                      A                      A
 Frequencies --   3147.5542              3160.7569              3313.9467
 Red. masses --      1.0919                 1.0932                 1.0762
 Frc consts  --      6.3737                 6.4348                 6.9635
 IR Inten    --      2.2084                 5.1793               381.0902

 - Thermochemistry -
 -------------------
 Temperature   298.150 Kelvin.  Pressure   1.00000 Atm.
 Atom     1 has atomic number  6 and mass  12.00000

 Molecular mass:   251.12699 amu.
 Principal axes and moments of inertia in atomic units:
                           1         2         3
     Eigenvalues --  2014.30192********************
           X            0.99991   0.01300   0.00187
           Y           -0.01295   0.99962  -0.02438
           Z           -0.00219   0.02436   0.99970
 This molecule is an asymmetric top.
 Rotational symmetry number  1.
 Warning -- assumption of classical behavior for rotation
           may cause significant error
 Rotational temperatures (Kelvin)      0.04300     0.00792     0.00734
 Rotational constants (GHZ):           0.89596     0.16495     0.15298
 Zero-point vibrational energy     732647.5 (Joules/Mol)
                                  175.10696 (Kcal/Mol)
 Warning -- explicit consideration of  27 degrees of freedom as
           vibrations may cause significant error
 Vibrational temperatures:     29.48    46.40    58.84    83.46    95.13
          (Kelvin)            103.32   120.51   154.95   191.79   216.39
                              304.05   326.40   340.21   379.55   406.99
                              436.17   462.11   532.94   546.43   589.26
                              593.20   634.62   698.02   743.30   755.92
                              813.96   826.75   894.49   980.50   998.28
                             1073.22  1103.22  1109.72  1128.86  1146.60
                             1157.79  1187.35  1216.41  1234.57  1271.06
                             1339.15  1346.08  1374.99  1380.26  1422.70
                             1433.56  1506.50  1519.70  1547.46  1566.80
                             1577.77  1588.02  1636.19  1666.03  1682.62
                             1707.53  1780.09  1794.50  1833.75  1835.13
                             1852.31  1867.96  1872.26  1933.39  1947.26
                             1949.24  1961.91  1969.75  2021.74  2027.01
                             2066.03  2070.35  2074.73  2081.53  2090.27
                             2101.96  2118.80  2146.29  2172.68  2282.87
                             2294.06  2444.74  4111.51  4124.95  4239.24
                             4278.31  4278.65  4308.67  4322.29  4337.45
                             4380.05  4381.58  4382.25  4386.04  4458.81
                             4522.22  4528.63  4547.62  4768.03

 Zero-point correction=                           0.279051 (Hartree/Particle)
 Thermal correction to Energy=                    0.297414
 Thermal correction to Enthalpy=                  0.298358
 Thermal correction to Gibbs Free Energy=         0.230119
 Sum of electronic and zero-point Energies=           -856.331120
 Sum of electronic and thermal Energies=              -856.312757
 Sum of electronic and thermal Enthalpies=            -856.311813
 Sum of electronic and thermal Free Energies=         -856.380052

                     E (Thermal)             CV                S
                      KCal/Mol        Cal/Mol-Kelvin    Cal/Mol-Kelvin
 Total                  186.630             68.123            143.621
 Electronic               0.000              0.000              0.000
 Translational            0.889              2.981             42.463
 Rotational               0.889              2.981             33.919
 Vibrational            184.852             62.161             67.240
 Vibration     1          0.593              1.986              6.586
 Vibration     2          0.594              1.983              5.686
 Vibration     3          0.594              1.981              5.215
 Vibration     4          0.596              1.974              4.524
 Vibration     5          0.598              1.970              4.266
 Vibration     6          0.598              1.967              4.103
 Vibration     7          0.601              1.960              3.801
 Vibration     8          0.606              1.943              3.310
 Vibration     9          0.613              1.920              2.898
 Vibration    10          0.618              1.902              2.667
 Vibration    11          0.643              1.824              2.032
 Vibration    12          0.651              1.800              1.904
 Vibration    13          0.655              1.785              1.829
 Vibration    14          0.670              1.739              1.636
 Vibration    15          0.682              1.705              1.516
 Vibration    16          0.695              1.668              1.399
 Vibration    17          0.707              1.633              1.304
 Vibration    18          0.742              1.533              1.078
 Vibration    19          0.750              1.513              1.040
 Vibration    20          0.774              1.449              0.928
 Vibration    21          0.776              1.444              0.919
 Vibration    22          0.801              1.381              0.823
 Vibration    23          0.841              1.283              0.696
 Vibration    24          0.872              1.213              0.618
 Vibration    25          0.880              1.194              0.598
 Vibration    26          0.922              1.105              0.513
 Vibration    27          0.931              1.086              0.495

                           ! Non-Optimized Parameters !
 Normal termination of Gaussian 16 at Thu Nov 11 12:07:04 2021.
