 Gaussian 16, Revision B.01,
 Gaussian 16:  EM64L-G16RevB.01 20-Dec-2017

 ----------------------------------------------------------------------
 #N PBE1PBE/6-311+G(2d,p) NMR SCRF=(PCM,Solvent=chloroform) Geom=Connec
 tivity
 ----------------------------------------------------------------------

 ----------------
 TMS PBE0/acc NMR
 ----------------
 Symbolic Z-matrix:
 Charge =  0 Multiplicity = 1

                         Standard orientation:
 ---------------------------------------------------------------------
 Center     Atomic      Atomic             Coordinates (Angstroms)
 Number     Number       Type             X           Y           Z
 ---------------------------------------------------------------------
      1          6           0       -1.091391   -1.091391    1.091391
      2         14           0        0.000000    0.000000    0.000000
      3          6           0        1.091391    1.091391    1.091391
      4          1           0        1.740139    0.482913    1.740139
      5          1           0        1.740139    1.740139    0.482913
      6          1           0        0.482913    1.740139    1.740139
      7          6           0        1.091391   -1.091391   -1.091391
      8          1           0        0.482913   -1.740139   -1.740139
      9          1           0        1.740139   -0.482913   -1.740139
     10          1           0        1.740139   -1.740139   -0.482913
     11          6           0       -1.091391    1.091391   -1.091391
     12          1           0       -1.740139    1.740139   -0.482913
     13          1           0       -0.482913    1.740139   -1.740139
     14          1           0       -1.740139    0.482913   -1.740139
     15          1           0       -1.740139   -0.482913    1.740139
     16          1           0       -1.740139   -1.740139    0.482913
     17          1           0       -0.482913   -1.740139    1.740139
 ---------------------------------------------------------------------

 SCF Done:  E(RPBE1PBE) =  -448.919799055     A.U. after    8 cycles

      1  C    Isotropic =   186.9653   Anisotropy =     8.2153

      2  Si   Isotropic =   343.8342   Anisotropy =     0.0000

      3  C    Isotropic =   186.9653   Anisotropy =     8.2153

      4  H    Isotropic =    31.5216   Anisotropy =     9.3710

      5  H    Isotropic =    31.5216   Anisotropy =     9.3710

      6  H    Isotropic =    31.5216   Anisotropy =     9.3710

      7  C    Isotropic =   186.9653   Anisotropy =     8.2153

      8  H    Isotropic =    31.5216   Anisotropy =     9.3710

      9  H    Isotropic =    31.5216   Anisotropy =     9.3710

     10  H    Isotropic =    31.5216   Anisotropy =     9.3710

     11  C    Isotropic =   186.9653   Anisotropy =     8.2153

     12  H    Isotropic =    31.5216   Anisotropy =     9.3710

     13  H    Isotropic =    31.5216   Anisotropy =     9.3710

     14  H    Isotropic =    31.5216   Anisotropy =     9.3710

     15  H    Isotropic =    31.5216   Anisotropy =     9.3710

     16  H    Isotropic =    31.5216   Anisotropy =     9.3710

     17  H    Isotropic =    31.5216   Anisotropy =     9.3710

 The electronic state is 1-A1.
 Alpha  occ. eigenvalues --  -66.21141 -10.19326 -10.19326 -10.19326 -10.19326
 Alpha  occ. eigenvalues --   -5.29712  -3.63122  -3.63122  -3.63122  -0.73645
 Alpha  occ. eigenvalues --   -0.69208  -0.69208  -0.69208  -0.46845  -0.42132
 Alpha  occ. eigenvalues --   -0.42132  -0.42132  -0.40551  -0.40551  -0.38695
 Alpha  occ. eigenvalues --   -0.38695  -0.38695  -0.30491  -0.30491  -0.30491
 Alpha virt. eigenvalues --   -0.00013   0.02974   0.02974   0.02974   0.06092
 Alpha virt. eigenvalues --    0.06092   0.06092   0.07742   0.07742   0.08434
 Alpha virt. eigenvalues --    0.10852   0.10852   0.10852   0.11205   0.11205

 Mulliken charges:
               1
     1  C   -0.719761
     2  Si   0.991068
     3  C   -0.719761
     4  H    0.157331
     5  H    0.157331
     6  H    0.157331
     7  C   -0.719761
     8  H    0.157331
     9  H    0.157331
    10  H    0.157331
    11  C   -0.719761
    12  H    0.157331
    13  H    0.157331
    14  H    0.157331
    15  H    0.157331
    16  H    0.157331
    17  H    0.157331
 Sum of Mulliken charges =   0.00000

 Dipole moment (field-independent basis, Debye):
    X=             -0.0000    Y=             -0.0000    Z=             -0.0000  Tot=              0.0000
 Quadrupole moment (field-independent basis, Debye-Ang):
   XX=            -42.4763   YY=            -42.4763   ZZ=            -42.4763
   XY=             -0.0000   XZ=             -0.0000   YZ=              0.0000

 Normal termination of Gaussian 16 at Sat Jul 30 20:49:05 2022.
