 Gaussian 16, Revision B.01,
 Gaussian 16:  EM64L-G16RevB.01 20-Dec-2017

 --------------------------------------------------
 #N PBEPBE/6-311+G(2d,p) OPT FREQ Geom=Connectivity
 --------------------------------------------------

 -------------------
 phenacetin (PBEPBE)
 -------------------
 Symbolic Z-matrix:
 Charge =  0 Multiplicity = 1

 SCF Done:  E(RPBE-PBE) =  -593.552401018     A.U. after   16 cycles
 SCF Done:  E(RPBE-PBE) =  -593.554151048     A.U. after   12 cycles
 SCF Done:  E(RPBE-PBE) =  -593.554197585     A.U. after   11 cycles
 SCF Done:  E(RPBE-PBE) =  -593.554209448     A.U. after   10 cycles
 SCF Done:  E(RPBE-PBE) =  -593.554210459     A.U. after    8 cycles
 Optimization completed.
    -- Stationary point found.
 Normal termination of Gaussian 16 at Wed Oct 20 10:23:03 2021.

 ----------------------------------------------------------------------
 #N Geom=AllCheck Guess=TCheck SCRF=Check GenChk RPBEPBE/6-311+G(2d,p)
 Freq
 ----------------------------------------------------------------------

 Structure from the checkpoint file:  "/scratch/webmo-4695/30/Gau-16457.chk"
 -------------------
 phenacetin (PBEPBE)
 -------------------
 Charge =  0 Multiplicity = 1

                         Standard orientation:
 ---------------------------------------------------------------------
 Center     Atomic      Atomic             Coordinates (Angstroms)
 Number     Number       Type             X           Y           Z
 ---------------------------------------------------------------------
      1          6           0        3.781872   -0.782265    0.000002
      2          8           0        3.048527    0.451494   -0.000027
      3          6           0        1.679659    0.377412   -0.000022
      4          6           0        0.936644   -0.810168   -0.000053
      5          6           0       -0.462457   -0.778223   -0.000052
      6          6           0       -1.139806    0.448161   -0.000019
      7          6           0       -0.386654    1.637868    0.000016
      8          6           0        1.000391    1.606754    0.000012
      9          1           0        1.581534    2.530602    0.000040
     10          1           0       -0.899324    2.604890    0.000050
     11          7           0       -2.548038    0.566919   -0.000018
     12          6           0       -3.508594   -0.423790   -0.000000
     13          6           0       -4.941921    0.086700    0.000023
     14          1           0       -5.455858   -0.313982   -0.885079
     15          1           0       -5.455635   -0.313419    0.885515
     16          1           0       -5.033548    1.182479   -0.000302
     17          8           0       -3.253633   -1.626705    0.000049
     18          1           0       -2.895021    1.522035   -0.000101
     19          1           0       -1.036412   -1.702487   -0.000072
     20          1           0        1.432286   -1.780836   -0.000082
     21          6           0        5.259176   -0.441170    0.000058
     22          1           0        5.856102   -1.365070    0.000051
     23          1           0        5.525541    0.143686   -0.891778
     24          1           0        5.525489    0.143642    0.891937
     25          1           0        3.511081   -1.372973   -0.894279
     26          1           0        3.511010   -1.372971    0.894263
 ---------------------------------------------------------------------

 SCF Done:  E(RPBE-PBE) =  -593.554210459     A.U. after    1 cycles

 The electronic state is 1-A.
 Alpha  occ. eigenvalues --  -18.78046 -18.71365 -14.02796  -9.98228  -9.94131
 Alpha  occ. eigenvalues --   -9.94093  -9.92814  -9.89346  -9.89107  -9.88643
 Alpha  occ. eigenvalues --   -9.88578  -9.88251  -9.88209  -0.97857  -0.95038
 Alpha  occ. eigenvalues --   -0.86394  -0.77606  -0.71293  -0.68644  -0.68117
 Alpha  occ. eigenvalues --   -0.64806  -0.58754  -0.57589  -0.53980  -0.51765
 Alpha  occ. eigenvalues --   -0.49274  -0.48195  -0.43581  -0.43571  -0.41555
 Alpha  occ. eigenvalues --   -0.40762  -0.39840  -0.38032  -0.37620  -0.36329
 Alpha  occ. eigenvalues --   -0.36022  -0.35636  -0.35302  -0.34625  -0.34074
 Alpha  occ. eigenvalues --   -0.31979  -0.31792  -0.29077  -0.28814  -0.24992
 Alpha  occ. eigenvalues --   -0.23237  -0.21107  -0.18251
 Alpha virt. eigenvalues --   -0.04652  -0.04433  -0.02488  -0.00923   0.00191
 Alpha virt. eigenvalues --    0.00478   0.00937   0.01965   0.02557   0.02691
 Alpha virt. eigenvalues --    0.03517   0.03723   0.04427   0.05022   0.05926

 Mulliken charges:
               1
     1  C    0.168514
     2  O   -0.334987
     3  C    0.260169
     4  C   -0.013927
     5  C   -0.003904
     6  C    0.644690
     7  C   -0.735364
     8  C   -0.278093
     9  H    0.102433
    10  H    0.083597
    11  N   -0.314738
    12  C    0.704037
    13  C   -0.761674
    14  H    0.169645
    15  H    0.169645
    16  H    0.129579
    17  O   -0.449130
    18  H    0.219687
    19  H    0.158078
    20  H    0.104089
    21  C   -0.759593
    22  H    0.147947
    23  H    0.149265
    24  H    0.149264
    25  H    0.145384
    26  H    0.145386
 Sum of Mulliken charges =  -0.00000

 Dipole moment (field-independent basis, Debye):
    X=              0.5913    Y=              2.2947    Z=             -0.0001  Tot=              2.3697
 Quadrupole moment (field-independent basis, Debye-Ang):
   XX=            -64.2672   YY=            -76.9460   ZZ=            -80.8899
   XY=            -16.3431   XZ=              0.0005   YZ=              0.0003

  Exact polarizability: 231.339   1.468 137.730  -0.001   0.000  87.302
 Approx polarizability: 358.174  14.795 290.786  -0.002   0.001 153.196

                      1                      2                      3
                      A                      A                      A
 Frequencies --     38.7599                46.4173                55.8455
 Red. masses --      2.9118                 4.4150                 1.3301
 Frc consts  --      0.0026                 0.0056                 0.0024
 IR Inten    --      0.3114                11.2335                 0.2221

                      4                      5                      6
                      A                      A                      A
 Frequencies --     88.9400               103.9942               111.6841
 Red. masses --      2.7775                 4.0354                 1.7086
 Frc consts  --      0.0129                 0.0257                 0.0126
 IR Inten    --      0.0002                 4.5050                 0.9208

                      7                      8                      9
                      A                      A                      A
 Frequencies --    182.9795               184.1401               243.6875
 Red. masses --      5.0400                 4.1252                 1.1984
 Frc consts  --      0.0994                 0.0824                 0.0419
 IR Inten    --      0.4331                 2.2720                 0.4178

                     10                     11                     12
                      A                      A                      A
 Frequencies --    267.8115               321.1687               367.2034
 Red. masses --      4.2146                 5.3610                 5.8734
 Frc consts  --      0.1781                 0.3258                 0.4666
 IR Inten    --      1.1913                 2.4250                 0.7713

                     13                     14                     15
                      A                      A                      A
 Frequencies --    380.6456               408.8994               437.1592
 Red. masses --      3.2928                 3.1741                 4.1479
 Frc consts  --      0.2811                 0.3127                 0.4670
 IR Inten    --      0.4483                 0.0411                 1.7944

                     16                     17                     18
                      A                      A                      A
 Frequencies --    499.0025               504.6982               530.9452
 Red. masses --      1.4371                 2.0307                 4.0857
 Frc consts  --      0.2108                 0.3048                 0.6786
 IR Inten    --     20.8295                41.0359                21.3081

                     19                     20                     21
                      A                      A                      A
 Frequencies --    607.0841               623.3286               632.9575
 Red. masses --      2.1002                 6.4210                 5.3260
 Frc consts  --      0.4560                 1.4699                 1.2572
 IR Inten    --      8.5872                 5.0091                 0.0390

                     22                     23                     24
                      A                      A                      A
 Frequencies --    701.1516               772.3395               774.2277
 Red. masses --      3.7124                 1.2623                 3.9494
 Frc consts  --      1.0753                 0.4436                 1.3948
 IR Inten    --      0.0003                 1.5188                12.9444

                     25                     26                     27
                      A                      A                      A
 Frequencies --    795.5466               814.4331               837.9370
 Red. masses --      1.4991                 1.2220                 4.5008
 Frc consts  --      0.5590                 0.4776                 1.8619
 IR Inten    --     48.3689                10.3169                 0.3476

                     28                     29                     30
                      A                      A                      A
 Frequencies --    892.8647               910.5543               919.6313
 Red. masses --      1.3346                 2.6118                 1.3100
 Frc consts  --      0.6269                 1.2759                 0.6527
 IR Inten    --      0.0016                25.1823                 2.5142

                     31                     32                     33
                      A                      A                      A
 Frequencies --    938.7148               973.8806               996.0620
 Red. masses --      5.5256                 1.6655                 2.3421
 Frc consts  --      2.8688                 0.9307                 1.3691
 IR Inten    --      2.4449                18.0507                 1.5625

                     34                     35                     36
                      A                      A                      A
 Frequencies --   1004.1938              1039.1614              1100.3185
 Red. masses --      1.6850                 3.6629                 1.9831
 Frc consts  --      1.0011                 2.3305                 1.4146
 IR Inten    --      4.6260                85.1942                 5.1260

                     37                     38                     39
                      A                      A                      A
 Frequencies --   1106.8857              1134.1865              1155.4939
 Red. masses --      1.3605                 1.5179                 1.1503
 Frc consts  --      0.9821                 1.1504                 0.9049
 IR Inten    --     23.1338                 2.8920                27.1124

                     40                     41                     42
                      A                      A                      A
 Frequencies --   1202.1309              1222.3356              1241.6411
 Red. masses --      3.0088                 2.3668                 3.1694
 Frc consts  --      2.5618                 2.0835                 2.8789
 IR Inten    --     89.7978               358.6549                91.9342

                     43                     44                     45
                      A                      A                      A
 Frequencies --   1255.6375              1287.0616              1337.1979
 Red. masses --      1.1111                 1.4193                 2.2636
 Frc consts  --      1.0321                 1.3852                 2.3847
 IR Inten    --      0.5198                11.9070                10.8141

                     46                     47                     48
                      A                      A                      A
 Frequencies --   1342.5084              1347.7237              1369.6702
 Red. masses --      1.4102                 1.6571                 1.4375
 Frc consts  --      1.4975                 1.7734                 1.5889
 IR Inten    --     43.1092                13.2099                19.5237

                     49                     50                     51
                      A                      A                      A
 Frequencies --   1400.9670              1416.8489              1433.0059
 Red. masses --      3.2094                 1.0434                 1.0368
 Frc consts  --      3.7113                 1.2341                 1.2545
 IR Inten    --     63.3240                 7.8351                 7.9584

                     52                     53                     54
                      A                      A                      A
 Frequencies --   1436.7548              1448.5892              1463.4756
 Red. masses --      1.1005                 1.0511                 1.1181
 Frc consts  --      1.3384                 1.2995                 1.4109
 IR Inten    --     10.4643                 6.9022                39.9037

                     55                     56                     57
                      A                      A                      A
 Frequencies --   1492.4791              1498.4122              1581.0964
 Red. masses --      2.2339                 2.5457                 5.3598
 Frc consts  --      2.9318                 3.3677                 7.8944
 IR Inten    --     14.7288               559.2321                 6.2387

                     58                     59                     60
                      A                      A                      A
 Frequencies --   1609.7699              1681.9488              2923.8551
 Red. masses --      6.2803                 8.3151                 1.0549
 Frc consts  --      9.5886                13.8594                 5.3134
 IR Inten    --     22.3874               246.4767                31.8301

                     61                     62                     63
                      A                      A                      A
 Frequencies --   2960.0176              2978.6042              2979.1156
 Red. masses --      1.1074                 1.0354                 1.0348
 Frc consts  --      5.7168                 5.4123                 5.4109
 IR Inten    --     27.2867                15.8853                19.4265

                     64                     65                     66
                      A                      A                      A
 Frequencies --   3052.9119              3056.1447              3056.1610
 Red. masses --      1.1009                 1.1031                 1.1022
 Frc consts  --      6.0455                 6.0701                 6.0652
 IR Inten    --     16.8917                21.2489                14.7680

                     67                     68                     69
                      A                      A                      A
 Frequencies --   3058.2088              3080.4914              3123.4725
 Red. masses --      1.1000                 1.0884                 1.0920
 Frc consts  --      6.0615                 6.0850                 6.2772
 IR Inten    --      2.9702                16.3945                 4.3157

                     70                     71                     72
                      A                      A                      A
 Frequencies --   3132.6581              3161.0414              3533.5502
 Red. masses --      1.0884                 1.0921                 1.0760
 Frc consts  --      6.2931                 6.4296                 7.9153
 IR Inten    --      6.9750                 7.1426                14.0448

 - Thermochemistry -
 -------------------
 Temperature   298.150 Kelvin.  Pressure   1.00000 Atm.
 Atom     1 has atomic number  6 and mass  12.00000

 Molecular mass:   179.09463 amu.
 Principal axes and moments of inertia in atomic units:
                           1         2         3
     Eigenvalues --   635.602865913.277736514.63413
           X            0.99989  -0.01482   0.00000
           Y            0.01482   0.99989   0.00000
           Z           -0.00000  -0.00000   1.00000
 This molecule is an asymmetric top.
 Rotational symmetry number  1.
 Warning -- assumption of classical behavior for rotation
           may cause significant error
 Rotational temperatures (Kelvin)      0.13627     0.01465     0.01330
 Rotational constants (GHZ):           2.83942     0.30520     0.27703
 Zero-point vibrational energy     548310.9 (Joules/Mol)
                                  131.04945 (Kcal/Mol)
 Warning -- explicit consideration of  19 degrees of freedom as
           vibrations may cause significant error
 Vibrational temperatures:     55.77    66.78    80.35   127.96   149.62
          (Kelvin)            160.69   263.27   264.94   350.61   385.32
                              462.09   528.32   547.66   588.31   628.97
                              717.95   726.15   763.91   873.46   896.83
                              910.68  1008.80  1111.22  1113.94  1144.61
                             1171.79  1205.60  1284.63  1310.08  1323.14
                             1350.60  1401.20  1433.11  1444.81  1495.12
                             1583.11  1592.56  1631.84  1662.50  1729.60
                             1758.67  1786.44  1806.58  1851.79  1923.93
                             1931.57  1939.07  1970.65  2015.68  2038.53
                             2061.78  2067.17  2084.20  2105.61  2147.34
                             2155.88  2274.85  2316.10  2419.95  4206.78
                             4258.81  4285.55  4286.28  4392.46  4397.11
                             4397.13  4400.08  4432.14  4493.98  4507.20
                             4548.03  5083.99

 Zero-point correction=                           0.208841 (Hartree/Particle)
 Thermal correction to Energy=                    0.222373
 Thermal correction to Enthalpy=                  0.223318
 Thermal correction to Gibbs Free Energy=         0.167539
 Sum of electronic and zero-point Energies=           -593.345370
 Sum of electronic and thermal Energies=              -593.331837
 Sum of electronic and thermal Enthalpies=            -593.330893
 Sum of electronic and thermal Free Energies=         -593.386671

                     E (Thermal)             CV                S
                      KCal/Mol        Cal/Mol-Kelvin    Cal/Mol-Kelvin
 Total                  139.541             49.952            117.395
 Electronic               0.000              0.000              0.000
 Translational            0.889              2.981             41.455
 Rotational               0.889              2.981             31.571
 Vibrational            137.764             43.990             44.369
 Vibration     1          0.594              1.981              5.321
 Vibration     2          0.595              1.979              4.964
 Vibration     3          0.596              1.975              4.599
 Vibration     4          0.602              1.957              3.683
 Vibration     5          0.605              1.946              3.378
 Vibration     6          0.607              1.940              3.239
 Vibration     7          0.630              1.863              2.298
 Vibration     8          0.631              1.861              2.286
 Vibration     9          0.659              1.773              1.776
 Vibration    10          0.673              1.732              1.610
 Vibration    11          0.707              1.633              1.304
 Vibration    12          0.740              1.540              1.091
 Vibration    13          0.750              1.511              1.037
 Vibration    14          0.773              1.451              0.931
 Vibration    15          0.797              1.389              0.836
 Vibration    16          0.854              1.252              0.661
 Vibration    17          0.860              1.240              0.646
 Vibration    18          0.886              1.182              0.585
 Vibration    19          0.966              1.017              0.438

 Optimization completed.
    -- Stationary point found.
 Normal termination of Gaussian 16 at Wed Oct 20 10:29:21 2021.
