 Gaussian 16, Revision B.01,
 Gaussian 16:  EM64L-G16RevB.01 20-Dec-2017

 ---------------------------------------------
 #N PBEPBE/6-31G(d) OPT FREQ Geom=Connectivity
 ---------------------------------------------

 ------------
 polyethylene
 ------------
 Symbolic Z-matrix:
 Charge =  0 Multiplicity = 1

 SCF Done:  E(RPBE-PBE) =  -354.487660702     A.U. after   12 cycles
 SCF Done:  E(RPBE-PBE) =  -354.492049796     A.U. after   10 cycles
 SCF Done:  E(RPBE-PBE) =  -354.492241202     A.U. after    9 cycles
 SCF Done:  E(RPBE-PBE) =  -354.492255126     A.U. after    7 cycles
 Optimization completed.
    -- Stationary point found.
 Normal termination of Gaussian 16 at Tue Mar 22 10:56:24 2022.

 ---------------------------------------------------------------------
 #N Geom=AllCheck Guess=TCheck SCRF=Check GenChk RPBEPBE/6-31G(d) Freq
 ---------------------------------------------------------------------

 Structure from the checkpoint file:  "/scratch/webmo-2626/94/Gau-38244.chk"
 ------------
 polyethylene
 ------------
 Charge =  0 Multiplicity = 1

                         Standard orientation:
 ---------------------------------------------------------------------
 Center     Atomic      Atomic             Coordinates (Angstroms)
 Number     Number       Type             X           Y           Z
 ---------------------------------------------------------------------
      1          6           0        0.000000   -5.132816    0.368039
      2          6           0        0.000000   -3.855190   -0.479392
      3          6           0        0.000000   -2.570217    0.361536
      4          6           0        0.000000   -1.284978   -0.478397
      5          6           0       -0.000000   -0.000000    0.362213
      6          6           0        0.000000    1.284978   -0.478397
      7          6           0        0.000000    2.570217    0.361536
      8          6           0        0.000000    3.855190   -0.479392
      9          6           0        0.000000    5.132816    0.368039
     10          1           0       -0.000000    6.038912   -0.262054
     11          1           0       -0.890412    5.178607    1.020608
     12          1           0        0.890412    5.178607    1.020608
     13          1           0        0.883819    3.852731   -1.146876
     14          1           0       -0.883819    3.852731   -1.146876
     15          1           0       -0.884324    2.571645    1.030203
     16          1           0        0.884324    2.571645    1.030203
     17          1           0        0.884380    1.284895   -1.146893
     18          1           0       -0.884380    1.284895   -1.146893
     19          1           0       -0.884411   -0.000000    1.030612
     20          1           0        0.884411    0.000000    1.030612
     21          1           0        0.884380   -1.284895   -1.146893
     22          1           0       -0.884380   -1.284895   -1.146893
     23          1           0       -0.884324   -2.571645    1.030203
     24          1           0        0.884324   -2.571645    1.030203
     25          1           0        0.883819   -3.852731   -1.146876
     26          1           0       -0.883819   -3.852731   -1.146876
     27          1           0       -0.890412   -5.178607    1.020608
     28          1           0       -0.000000   -6.038912   -0.262054
     29          1           0        0.890412   -5.178607    1.020608
 ---------------------------------------------------------------------

 SCF Done:  E(RPBE-PBE) =  -354.492255126     A.U. after    1 cycles

 The electronic state is 1-A1.
 Alpha  occ. eigenvalues --   -9.88969  -9.88969  -9.88775  -9.88766  -9.88760
 Alpha  occ. eigenvalues --   -9.88744  -9.88744  -9.88303  -9.88303  -0.72771
 Alpha  occ. eigenvalues --   -0.70985  -0.68081  -0.64195  -0.59607  -0.54850
 Alpha  occ. eigenvalues --   -0.51314  -0.50776  -0.50318  -0.42435  -0.40808
 Alpha  occ. eigenvalues --   -0.38285  -0.37896  -0.37339  -0.35178  -0.34776
 Alpha  occ. eigenvalues --   -0.34768  -0.31982  -0.31757  -0.29920  -0.29293
 Alpha  occ. eigenvalues --   -0.29025  -0.27942  -0.27599  -0.27333  -0.26944
 Alpha  occ. eigenvalues --   -0.26931  -0.25185
 Alpha virt. eigenvalues --    0.06759   0.07439   0.08512   0.08801   0.09885
 Alpha virt. eigenvalues --    0.10706   0.10977   0.12159   0.13612   0.13986
 Alpha virt. eigenvalues --    0.14052   0.15041   0.16354   0.16806   0.17023

 Mulliken charges:
               1
     1  C   -0.482484
     2  C   -0.278577
     3  C   -0.274127
     4  C   -0.281450
     5  C   -0.282118
     6  C   -0.281450
     7  C   -0.274127
     8  C   -0.278577
     9  C   -0.482484
    10  H    0.155248
    11  H    0.154962
    12  H    0.154962
    13  H    0.144655
    14  H    0.144655
    15  H    0.140406
    16  H    0.140406
    17  H    0.140733
    18  H    0.140733
    19  H    0.140936
    20  H    0.140936
    21  H    0.140733
    22  H    0.140733
    23  H    0.140406
    24  H    0.140406
    25  H    0.144655
    26  H    0.144655
    27  H    0.154962
    28  H    0.155248
    29  H    0.154962
 Sum of Mulliken charges =  -0.00000

 Dipole moment (field-independent basis, Debye):
    X=             -0.0000    Y=              0.0000    Z=             -0.0517  Tot=              0.0517
 Quadrupole moment (field-independent basis, Debye-Ang):
   XX=            -60.1709   YY=            -62.3752   ZZ=            -61.6917
   XY=             -0.0000   XZ=              0.0000   YZ=             -0.0000

  Exact polarizability:  86.720   0.000 129.757  -0.000   0.000  89.617
 Approx polarizability: 152.953  -0.000 153.612  -0.000  -0.000 150.458

                      1                      2                      3
                     B1                     A2                     A1
 Frequencies --     38.5606                57.8331                60.2957
 Red. masses --      3.1737                 1.5250                 3.3097
 Frc consts  --      0.0028                 0.0030                 0.0071
 IR Inten    --      0.0027                 0.0000                 0.0025

                      4                      5                      6
                     A2                     B1                     B1
 Frequencies --     96.1596               113.9134               152.9034
 Red. masses --      2.5773                 1.6159                 2.1876
 Frc consts  --      0.0140                 0.0124                 0.0301
 IR Inten    --      0.0000                 0.0015                 0.0009

                      7                      8                      9
                     B2                     A2                     A1
 Frequencies --    154.9733               158.6159               236.4187
 Red. masses --      3.0090                 1.8085                 3.7213
 Frc consts  --      0.0426                 0.0268                 0.1226
 IR Inten    --      0.0002                 0.0000                 0.0055

                     10                     11                     12
                     B1                     A2                     A1
 Frequencies --    246.2853               246.5239               282.2535
 Red. masses --      1.1135                 1.1246                 2.9232
 Frc consts  --      0.0398                 0.0403                 0.1372
 IR Inten    --      0.0028                 0.0000                 0.0339

                     13                     14                     15
                     B2                     B2                     A1
 Frequencies --    386.0258               445.2697               483.4364
 Red. masses --      2.7438                 3.2413                 2.7522
 Frc consts  --      0.2409                 0.3786                 0.3790
 IR Inten    --      0.0364                 0.1167                 0.0484

                     16                     17                     18
                     B1                     A2                     B1
 Frequencies --    718.9766               719.4191               729.5676
 Red. masses --      1.0576                 1.0698                 1.0977
 Frc consts  --      0.3221                 0.3262                 0.3443
 IR Inten    --      8.2510                 0.0000                 1.9163

                     19                     20                     21
                     A2                     B1                     A1
 Frequencies --    760.7058               815.8617               885.1153
 Red. masses --      1.1434                 1.1856                 1.9490
 Frc consts  --      0.3898                 0.4650                 0.8996
 IR Inten    --      0.0000                 1.2119                 1.3396

                     22                     23                     24
                     A2                     B2                     B1
 Frequencies --    885.4326               886.6848               957.6392
 Red. masses --      1.1997                 1.7688                 1.1703
 Frc consts  --      0.5541                 0.8193                 0.6323
 IR Inten    --      0.0000                 3.1006                 0.6614

                     25                     26                     27
                     B2                     A1                     A2
 Frequencies --    990.3067              1006.1659              1020.0260
 Red. masses --      4.5648                 2.8310                 1.0867
 Frc consts  --      2.6376                 1.6886                 0.6662
 IR Inten    --      0.0467                 0.3372                 0.0000

                     28                     29                     30
                     A1                     B2                     B2
 Frequencies --   1030.3213              1053.6969              1059.4498
 Red. masses --      3.1882                 2.5466                 2.0351
 Frc consts  --      1.9941                 1.6659                 1.3459
 IR Inten    --      0.2828                 0.0332                 0.0487

                     31                     32                     33
                     A1                     B2                     A1
 Frequencies --   1062.7791              1086.5933              1133.3046
 Red. masses --      2.1920                 1.8774                 2.9965
 Frc consts  --      1.4587                 1.3060                 2.2675
 IR Inten    --      0.5820                 5.4164                 0.7656

                     34                     35                     36
                     B1                     A2                     B2
 Frequencies --   1177.8058              1201.8131              1208.8511
 Red. masses --      1.9431                 1.5772                 1.3238
 Frc consts  --      1.5882                 1.3422                 1.1398
 IR Inten    --      0.0987                 0.0000                 4.1766

                     37                     38                     39
                     B1                     A1                     A2
 Frequencies --   1240.9688              1253.5315              1277.3514
 Red. masses --      1.3639                 1.3137                 1.2433
 Frc consts  --      1.2375                 1.2162                 1.1952
 IR Inten    --      0.0008                 0.0033                 0.0000

                     40                     41                     42
                     A2                     B2                     B1
 Frequencies --   1295.7125              1297.6311              1300.7166
 Red. masses --      1.0215                 1.3505                 1.1278
 Frc consts  --      1.0104                 1.3399                 1.1242
 IR Inten    --      0.0000                 2.5413                 0.7311

                     43                     44                     45
                     B1                     A2                     A1
 Frequencies --   1307.1396              1310.9553              1337.0157
 Red. masses --      1.0857                 1.1027                 1.4295
 Frc consts  --      1.0929                 1.1166                 1.5056
 IR Inten    --      0.1461                 0.0000                 0.0610

                     46                     47                     48
                     B2                     B2                     A1
 Frequencies --   1364.1390              1372.7226              1374.3581
 Red. masses --      1.5423                 1.7340                 1.6714
 Frc consts  --      1.6910                 1.9252                 1.8601
 IR Inten    --      1.8328                 0.2828                 0.4531

                     49                     50                     51
                     A1                     B2                     B2
 Frequencies --   1389.8061              1389.8113              1461.7733
 Red. masses --      1.2523                 1.2638                 1.0731
 Frc consts  --      1.4252                 1.4382                 1.3510
 IR Inten    --      2.3314                 1.0278                 0.0525

                     52                     53                     54
                     A1                     A1                     B2
 Frequencies --   1461.9185              1465.8231              1467.0985
 Red. masses --      1.0731                 1.0675                 1.0708
 Frc consts  --      1.3513                 1.3514                 1.3579
 IR Inten    --      0.0001                 0.0003                 0.6267

                     55                     56                     57
                     A1                     B2                     A2
 Frequencies --   1473.1244              1480.2814              1481.8897
 Red. masses --      1.0717                 1.0758                 1.0396
 Frc consts  --      1.3702                 1.3890                 1.3451
 IR Inten    --      0.0223                 0.8916                 0.0000

                     58                     59                     60
                     B1                     A1                     B2
 Frequencies --   1481.8933              1487.2696              1492.3607
 Red. masses --      1.0396                 1.0787                 1.0818
 Frc consts  --      1.3451                 1.4058                 1.4195
 IR Inten    --     13.8004                 0.2726                 0.9292

                     61                     62                     63
                     A1                     B2                     A1
 Frequencies --   1494.6435              2943.8423              2944.6896
 Red. masses --      1.0913                 1.0577                 1.0579
 Frc consts  --      1.4363                 5.4006                 5.4047
 IR Inten    --      7.9051                 0.0431                 0.4308

                     64                     65                     66
                     A1                     B2                     A1
 Frequencies --   2945.8909              2949.7462              2956.3795
 Red. masses --      1.0585                 1.0592                 1.0597
 Frc consts  --      5.4122                 5.4299                 5.4572
 IR Inten    --      1.7238                 0.0000                19.9901

                     67                     68                     69
                     B2                     A1                     B1
 Frequencies --   2962.4698              2964.1167              2968.2976
 Red. masses --      1.0599                 1.0598                 1.0977
 Frc consts  --      5.4808                 5.4861                 5.6981
 IR Inten    --      0.1445               182.2737                 0.0198

                     70                     71                     72
                     A2                     B2                     A1
 Frequencies --   2971.3012              2977.0982              2977.2684
 Red. masses --      1.0989                 1.0358                 1.0359
 Frc consts  --      5.7162                 5.4091                 5.4101
 IR Inten    --      0.0000                48.8850                35.6635

                     73                     74                     75
                     B1                     A2                     B1
 Frequencies --   2978.1541              2987.8297              2998.3999
 Red. masses --      1.1011                 1.1033                 1.1048
 Frc consts  --      5.7540                 5.8033                 5.8522
 IR Inten    --      0.1369                 0.0000                 1.5022

                     76                     77                     78
                     A2                     B1                     A2
 Frequencies --   3007.1309              3013.7261              3048.5529
 Red. masses --      1.1053                 1.1052                 1.1022
 Frc consts  --      5.8890                 5.9140                 6.0355
 IR Inten    --      0.0000               173.2956                 0.0000

                     79                     80                     81
                     B1                     B2                     A1
 Frequencies --   3048.6380              3055.4893              3055.5615
 Red. masses --      1.1022                 1.1013                 1.1013
 Frc consts  --      6.0358                 6.0580                 6.0581
 IR Inten    --    110.3120                32.8407                44.1599

 - Thermochemistry -
 -------------------
 Temperature   298.150 Kelvin.  Pressure   1.00000 Atm.
 Atom     1 has atomic number  6 and mass  12.00000

 Molecular mass:   128.15650 amu.
 Principal axes and moments of inertia in atomic units:
                           1         2         3
     Eigenvalues --   194.828615271.506885364.72203
           X            0.00000   0.00000   1.00000
           Y            1.00000   0.00000  -0.00000
           Z           -0.00000   1.00000  -0.00000
 This molecule is an asymmetric top.
 Rotational symmetry number  2.
 Rotational temperatures (Kelvin)      0.44456     0.01643     0.01615
 Rotational constants (GHZ):           9.26322     0.34236     0.33641
 Zero-point vibrational energy     706182.6 (Joules/Mol)
                                  168.78168 (Kcal/Mol)
 Warning -- explicit consideration of  15 degrees of freedom as
           vibrations may cause significant error
 Vibrational temperatures:     55.48    83.21    86.75   138.35   163.90
          (Kelvin)            219.99   222.97   228.21   340.15   354.35
                              354.69   406.10   555.41   640.64   695.56
                             1034.45  1035.08  1049.68  1094.49  1173.84
                             1273.48  1273.94  1275.74  1377.83  1424.83
                             1447.65  1467.59  1482.40  1516.03  1524.31
                             1529.10  1563.37  1630.57  1694.60  1729.14
                             1739.27  1785.48  1803.55  1837.82  1864.24
                             1867.00  1871.44  1880.68  1886.17  1923.67
                             1962.69  1975.04  1977.39  1999.62  1999.63
                             2103.17  2103.37  2108.99  2110.83  2119.50
                             2129.79  2132.11  2132.11  2139.85  2147.17
                             2150.46  4235.53  4236.75  4238.48  4244.03
                             4253.57  4262.33  4264.70  4270.72  4275.04
                             4283.38  4283.63  4284.90  4298.82  4314.03
                             4326.59  4336.08  4386.19  4386.31  4396.17
                             4396.27

 Zero-point correction=                           0.268971 (Hartree/Particle)
 Thermal correction to Energy=                    0.281630
 Thermal correction to Enthalpy=                  0.282574
 Thermal correction to Gibbs Free Energy=         0.230040
 Sum of electronic and zero-point Energies=           -354.223284
 Sum of electronic and thermal Energies=              -354.210625
 Sum of electronic and thermal Enthalpies=            -354.209681
 Sum of electronic and thermal Free Energies=         -354.262215

                     E (Thermal)             CV                S
                      KCal/Mol        Cal/Mol-Kelvin    Cal/Mol-Kelvin
 Total                  176.725             44.768            110.566
 Electronic               0.000              0.000              0.000
 Translational            0.889              2.981             40.457
 Rotational               0.889              2.981             28.712
 Vibrational            174.948             38.806             41.397
 Vibration     1          0.594              1.981              5.332
 Vibration     2          0.596              1.974              4.530
 Vibration     3          0.597              1.973              4.447
 Vibration     4          0.603              1.952              3.531
 Vibration     5          0.607              1.938              3.201
 Vibration     6          0.619              1.899              2.636
 Vibration     7          0.620              1.897              2.610
 Vibration     8          0.621              1.893              2.566
 Vibration     9          0.655              1.785              1.830
 Vibration    10          0.661              1.769              1.757
 Vibration    11          0.661              1.769              1.755
 Vibration    12          0.681              1.707              1.520
 Vibration    13          0.755              1.500              1.015
 Vibration    14          0.805              1.371              0.810
 Vibration    15          0.840              1.287              0.701

                           ! Non-Optimized Parameters !
 Normal termination of Gaussian 16 at Tue Mar 22 10:57:29 2022.
