 Gaussian 16, Revision B.01,
 Gaussian 16:  EM64L-G16RevB.01 20-Dec-2017

 ---------------------------------------------
 #N PBEPBE/6-31G(d) OPT FREQ Geom=Connectivity
 ---------------------------------------------

 -------------
 polypropylene
 -------------
 Symbolic Z-matrix:
 Charge =  0 Multiplicity = 1

 SCF Done:  E(RPBE-PBE) =  -629.250283808     A.U. after   12 cycles
 SCF Done:  E(RPBE-PBE) =  -629.255980447     A.U. after   10 cycles
 SCF Done:  E(RPBE-PBE) =  -629.256977887     A.U. after   11 cycles
 SCF Done:  E(RPBE-PBE) =  -629.257605402     A.U. after   10 cycles
 SCF Done:  E(RPBE-PBE) =  -629.258155583     A.U. after   10 cycles
 SCF Done:  E(RPBE-PBE) =  -629.257960419     A.U. after   10 cycles
 SCF Done:  E(RPBE-PBE) =  -629.258080345     A.U. after   10 cycles
 SCF Done:  E(RPBE-PBE) =  -629.258204727     A.U. after   10 cycles
 SCF Done:  E(RPBE-PBE) =  -629.258313218     A.U. after   10 cycles
 SCF Done:  E(RPBE-PBE) =  -629.258367947     A.U. after    9 cycles
 SCF Done:  E(RPBE-PBE) =  -629.258385246     A.U. after    9 cycles
 SCF Done:  E(RPBE-PBE) =  -629.258409354     A.U. after   10 cycles
 SCF Done:  E(RPBE-PBE) =  -629.258415596     A.U. after    8 cycles
 SCF Done:  E(RPBE-PBE) =  -629.258421085     A.U. after    9 cycles
 SCF Done:  E(RPBE-PBE) =  -629.258422192     A.U. after    7 cycles
 SCF Done:  E(RPBE-PBE) =  -629.258422459     A.U. after    7 cycles
 SCF Done:  E(RPBE-PBE) =  -629.258422582     A.U. after    6 cycles
 SCF Done:  E(RPBE-PBE) =  -629.258422587     A.U. after    6 cycles
 Optimization completed.
    -- Stationary point found.
 Normal termination of Gaussian 16 at Tue Mar 22 13:20:40 2022.

 ---------------------------------------------------------------------
 #N Geom=AllCheck Guess=TCheck SCRF=Check GenChk RPBEPBE/6-31G(d) Freq
 ---------------------------------------------------------------------

 Structure from the checkpoint file:  "/scratch/webmo-2626/96/Gau-48305.chk"
 -------------
 polypropylene
 -------------
 Charge =  0 Multiplicity = 1

                         Standard orientation:
 ---------------------------------------------------------------------
 Center     Atomic      Atomic             Coordinates (Angstroms)
 Number     Number       Type             X           Y           Z
 ---------------------------------------------------------------------
      1          6           0        4.031403   -1.697553   -0.379533
      2          6           0        3.940018   -0.249962    0.133374
      3          6           0        2.605376    0.472206   -0.239286
      4          6           0        1.355973   -0.170197    0.447620
      5          6           0        0.005805    0.512363    0.039887
      6          6           0       -1.272938   -0.262860    0.521318
      7          6           0       -2.582961    0.433639   -0.029320
      8          6           0       -3.655254   -0.501050   -0.677197
      9          6           0       -4.530593    0.277896   -1.677272
     10          1           0       -5.260784   -0.391870   -2.165483
     11          1           0       -5.104992    1.080568   -1.180293
     12          1           0       -3.919086    0.744544   -2.469874
     13          1           0       -3.115613   -1.265287   -1.267042
     14          6           0       -4.555793   -1.235912    0.333912
     15          1           0       -3.980777   -1.753851    1.120859
     16          1           0       -5.244847   -0.535830    0.838520
     17          1           0       -5.176265   -1.991526   -0.179564
     18          6           0       -3.213913    1.327911    1.056726
     19          1           0       -2.500622    2.080715    1.427891
     20          1           0       -4.100744    1.869272    0.682213
     21          1           0       -3.531880    0.726933    1.927046
     22          1           0       -2.257526    1.096824   -0.857212
     23          6           0       -1.154424   -1.761428    0.180186
     24          1           0       -0.938044   -1.924484   -0.892075
     25          1           0       -0.341011   -2.234633    0.754156
     26          1           0       -2.073560   -2.316352    0.423007
     27          1           0       -1.319941   -0.190428    1.626969
     28          6           0       -0.013446    1.998744    0.444117
     29          1           0       -0.885028    2.527419    0.026256
     30          1           0       -0.042160    2.121853    1.541612
     31          1           0        0.883123    2.525842    0.076291
     32          1           0       -0.045129    0.471007   -1.066988
     33          1           0        1.306018   -1.206558    0.064158
     34          6           0        1.516172   -0.244708    1.979268
     35          1           0        2.320872   -0.936796    2.276767
     36          1           0        1.754554    0.744311    2.410788
     37          1           0        0.592997   -0.602345    2.465990
     38          1           0        2.715651    1.500867    0.162434
     39          6           0        2.423901    0.586874   -1.765619
     40          1           0        2.126471   -0.379262   -2.212413
     41          1           0        1.649451    1.324804   -2.031816
     42          1           0        3.354736    0.909889   -2.260869
     43          1           0        3.984961   -0.286330    1.238063
     44          6           0        5.175188    0.554092   -0.312337
     45          1           0        5.119460    1.602858    0.030762
     46          1           0        6.096349    0.111907    0.106719
     47          1           0        5.292826    0.565135   -1.410449
     48          1           0        4.014305   -1.737126   -1.483447
     49          1           0        4.975536   -2.166004   -0.049726
     50          1           0        3.203619   -2.326414   -0.008317
 ---------------------------------------------------------------------

 SCF Done:  E(RPBE-PBE) =  -629.258422587     A.U. after    1 cycles

 The electronic state is 1-A.
 Alpha  occ. eigenvalues --   -9.89604  -9.89576  -9.89571  -9.89496  -9.89461
 Alpha  occ. eigenvalues --   -9.89459  -9.89328  -9.88130  -9.88117  -9.88115
 Alpha  occ. eigenvalues --   -9.88113  -9.88062  -9.88046  -9.88015  -9.87960
 Alpha  occ. eigenvalues --   -9.87883  -0.75142  -0.73397  -0.70771  -0.67258
 Alpha  occ. eigenvalues --   -0.64485  -0.64189  -0.63738  -0.60508  -0.60495
 Alpha  occ. eigenvalues --   -0.56656  -0.56330  -0.55553  -0.52867  -0.48365
 Alpha  occ. eigenvalues --   -0.46682  -0.45980  -0.42199  -0.41679  -0.39944
 Alpha  occ. eigenvalues --   -0.39668  -0.38007  -0.37849  -0.37284  -0.36958
 Alpha  occ. eigenvalues --   -0.35683  -0.35487  -0.34764  -0.34390  -0.33358
 Alpha  occ. eigenvalues --   -0.33233  -0.32724  -0.32622  -0.32165  -0.31779
 Alpha  occ. eigenvalues --   -0.31352  -0.30911  -0.30172  -0.29465  -0.29145
 Alpha  occ. eigenvalues --   -0.29070  -0.28795  -0.27709  -0.26964  -0.26529
 Alpha  occ. eigenvalues --   -0.25682  -0.25612  -0.25127  -0.24238  -0.23484
 Alpha virt. eigenvalues --    0.04716   0.06241   0.07101   0.07403   0.08542
 Alpha virt. eigenvalues --    0.09703   0.10023   0.10255   0.10572   0.10827
 Alpha virt. eigenvalues --    0.11496   0.11633   0.12258   0.12502   0.13042

 Mulliken charges:
               1
     1  C   -0.490984
     2  C   -0.099101
     3  C   -0.082827
     4  C   -0.102104
     5  C   -0.107418
     6  C   -0.090073
     7  C   -0.090931
     8  C   -0.098552
     9  C   -0.488800
    10  H    0.152321
    11  H    0.154333
    12  H    0.152687
    13  H    0.142187
    14  C   -0.489956
    15  H    0.158194
    16  H    0.156513
    17  H    0.152913
    18  C   -0.509393
    19  H    0.161049
    20  H    0.152583
    21  H    0.157817
    22  H    0.133058
    23  C   -0.518057
    24  H    0.155065
    25  H    0.161483
    26  H    0.162737
    27  H    0.133858
    28  C   -0.507567
    29  H    0.163415
    30  H    0.156264
    31  H    0.159025
    32  H    0.135433
    33  H    0.138787
    34  C   -0.510839
    35  H    0.160132
    36  H    0.156039
    37  H    0.159707
    38  H    0.127933
    39  C   -0.510009
    40  H    0.155415
    41  H    0.161491
    42  H    0.156518
    43  H    0.141682
    44  C   -0.488536
    45  H    0.152121
    46  H    0.152733
    47  H    0.154805
    48  H    0.156221
    49  H    0.152762
    50  H    0.157867
 Sum of Mulliken charges =   0.00000

 Dipole moment (field-independent basis, Debye):
    X=              0.0758    Y=             -0.0966    Z=              0.0114  Tot=              0.1233
 Quadrupole moment (field-independent basis, Debye-Ang):
   XX=           -108.4040   YY=           -108.1327   ZZ=           -107.9071
   XY=              0.1943   XZ=              0.4913   YZ=             -0.0856

  Exact polarizability: 213.944  -0.495 158.442   1.588  -0.244 154.268
 Approx polarizability: 289.500  -0.604 273.057   0.795   0.473 274.163

                      1                      2                      3
                      A                      A                      A
 Frequencies --     27.3609                32.7043                53.4548
 Red. masses --      2.8457                 2.7949                 2.9560
 Frc consts  --      0.0013                 0.0018                 0.0050
 IR Inten    --      0.0032                 0.0029                 0.0214

                      4                      5                      6
                      A                      A                      A
 Frequencies --     63.5083                87.1705               104.2722
 Red. masses --      2.6009                 2.8266                 2.7209
 Frc consts  --      0.0062                 0.0127                 0.0174
 IR Inten    --      0.0037                 0.0040                 0.1511

                      7                      8                      9
                      A                      A                      A
 Frequencies --    126.9341               166.4591               181.8755
 Red. masses --      2.4239                 2.1183                 2.2944
 Frc consts  --      0.0230                 0.0346                 0.0447
 IR Inten    --      0.0295                 0.0211                 0.0421

                     10                     11                     12
                      A                      A                      A
 Frequencies --    199.3302               209.4185               216.5348
 Red. masses --      1.4420                 1.3002                 1.2041
 Frc consts  --      0.0338                 0.0336                 0.0333
 IR Inten    --      0.0596                 0.0167                 0.0218

                     13                     14                     15
                      A                      A                      A
 Frequencies --    221.0385               230.9140               235.0490
 Red. masses --      1.2451                 1.1988                 1.2788
 Frc consts  --      0.0358                 0.0377                 0.0416
 IR Inten    --      0.0501                 0.0284                 0.0087

                     16                     17                     18
                      A                      A                      A
 Frequencies --    246.8945               255.9643               261.5475
 Red. masses --      1.0840                 1.8305                 1.7643
 Frc consts  --      0.0389                 0.0707                 0.0711
 IR Inten    --      0.0675                 0.0674                 0.0722

                     19                     20                     21
                      A                      A                      A
 Frequencies --    271.1390               279.5189               290.9572
 Red. masses --      1.5945                 1.6504                 1.7381
 Frc consts  --      0.0691                 0.0760                 0.0867
 IR Inten    --      0.0478                 0.2555                 0.0563

                     22                     23                     24
                      A                      A                      A
 Frequencies --    294.2200               311.5150               320.6008
 Red. masses --      1.6960                 1.7574                 2.0901
 Frc consts  --      0.0865                 0.1005                 0.1266
 IR Inten    --      0.0401                 0.0068                 0.0045

                     25                     26                     27
                      A                      A                      A
 Frequencies --    336.6082               374.8171               394.2637
 Red. masses --      1.9244                 2.1443                 2.2816
 Frc consts  --      0.1285                 0.1775                 0.2090
 IR Inten    --      0.0466                 0.2261                 0.2870

                     28                     29                     30
                      A                      A                      A
 Frequencies --    399.9475               409.5009               431.4554
 Red. masses --      2.2349                 2.3172                 2.7254
 Frc consts  --      0.2106                 0.2289                 0.2989
 IR Inten    --      0.2418                 0.0115                 0.1267

                     31                     32                     33
                      A                      A                      A
 Frequencies --    459.1627               498.7042               507.7876
 Red. masses --      2.6278                 2.7187                 2.4239
 Frc consts  --      0.3264                 0.3984                 0.3682
 IR Inten    --      0.7120                 0.7021                 2.8149

                     34                     35                     36
                      A                      A                      A
 Frequencies --    548.3526               564.7332               598.2813
 Red. masses --      2.2317                 2.3317                 2.2574
 Frc consts  --      0.3954                 0.4381                 0.4761
 IR Inten    --      1.2772                 0.8102                 0.3432

                     37                     38                     39
                      A                      A                      A
 Frequencies --    748.0802               754.8744               783.6715
 Red. masses --      2.7512                 2.4016                 2.1747
 Frc consts  --      0.9071                 0.8063                 0.7869
 IR Inten    --      1.0165                 1.1224                 0.6215

                     40                     41                     42
                      A                      A                      A
 Frequencies --    811.5659               845.7103               875.9208
 Red. masses --      2.1579                 2.0048                 1.8673
 Frc consts  --      0.8374                 0.8448                 0.8441
 IR Inten    --      0.9924                 0.2772                 0.1045

                     43                     44                     45
                      A                      A                      A
 Frequencies --    902.8632               905.0201               909.2466
 Red. masses --      1.4681                 1.5345                 1.3379
 Frc consts  --      0.7051                 0.7405                 0.6517
 IR Inten    --      2.3470                 1.3433                 1.2104

                     46                     47                     48
                      A                      A                      A
 Frequencies --    917.6788               945.1343               947.9363
 Red. masses --      1.4387                 1.3725                 1.3847
 Frc consts  --      0.7138                 0.7223                 0.7331
 IR Inten    --      0.9521                 3.5531                 0.5334

                     49                     50                     51
                      A                      A                      A
 Frequencies --    948.9109               952.5043               965.6627
 Red. masses --      1.3408                 1.2605                 1.5820
 Frc consts  --      0.7113                 0.6738                 0.8692
 IR Inten    --      2.2013                 0.8016                 0.6459

                     52                     53                     54
                      A                      A                      A
 Frequencies --    975.0160               986.8537               992.1199
 Red. masses --      1.8810                 1.7713                 1.7371
 Frc consts  --      1.0535                 1.0164                 1.0074
 IR Inten    --      8.0442                 1.2168                 8.3085

                     55                     56                     57
                      A                      A                      A
 Frequencies --   1009.5307              1021.5743              1043.0717
 Red. masses --      1.6744                 1.5209                 1.6747
 Frc consts  --      1.0054                 0.9352                 1.0735
 IR Inten    --      3.7723                39.3852                 1.4727

                     58                     59                     60
                      A                      A                      A
 Frequencies --   1060.5396              1077.4062              1091.2894
 Red. masses --      2.0615                 2.4555                 1.9350
 Frc consts  --      1.3661                 1.6794                 1.3577
 IR Inten    --      5.2950                 2.1271                11.2973

                     61                     62                     63
                      A                      A                      A
 Frequencies --   1125.2434              1132.0020              1132.9522
 Red. masses --      1.9417                 2.0695                 2.1101
 Frc consts  --      1.4486                 1.5625                 1.5958
 IR Inten    --     15.6128                 5.8299                 7.6374

                     64                     65                     66
                      A                      A                      A
 Frequencies --   1147.8933              1159.0177              1162.1773
 Red. masses --      2.1091                 2.2070                 2.3506
 Frc consts  --      1.6374                 1.7468                 1.8706
 IR Inten    --      0.1395                 0.4387                 0.2950

                     67                     68                     69
                      A                      A                      A
 Frequencies --   1170.6554              1183.0997              1186.3302
 Red. masses --      2.2028                 2.0093                 2.0428
 Frc consts  --      1.7786                 1.6571                 1.6939
 IR Inten    --      0.1375                 0.7167                 1.9599

                     70                     71                     72
                      A                      A                      A
 Frequencies --   1242.0885              1258.8863              1284.0230
 Red. masses --      1.3187                 1.2644                 1.3926
 Frc consts  --      1.1987                 1.1806                 1.3528
 IR Inten    --      0.8690                 1.8199                 0.7281

                     73                     74                     75
                      A                      A                      A
 Frequencies --   1285.9549              1294.6536              1306.7154
 Red. masses --      1.3383                 1.4626                 1.2138
 Frc consts  --      1.3039                 1.4444                 1.2212
 IR Inten    --      4.1818                 1.9466                 0.6605

                     76                     77                     78
                      A                      A                      A
 Frequencies --   1318.0763              1325.9719              1335.4320
 Red. masses --      1.2149                 1.3325                 1.3003
 Frc consts  --      1.2436                 1.3803                 1.3663
 IR Inten    --      3.0277                 2.4905                 4.5321

                     79                     80                     81
                      A                      A                      A
 Frequencies --   1341.4543              1347.5171              1350.0686
 Red. masses --      1.3400                 1.3293                 1.3528
 Frc consts  --      1.4207                 1.4222                 1.4528
 IR Inten    --      0.1512                 1.2328                 0.5586

                     82                     83                     84
                      A                      A                      A
 Frequencies --   1353.7117              1355.9012              1375.4263
 Red. masses --      1.3140                 1.3017                 1.2637
 Frc consts  --      1.4187                 1.4099                 1.4085
 IR Inten    --      0.5452                 0.5290                 6.7275

                     85                     86                     87
                      A                      A                      A
 Frequencies --   1376.5908              1383.8783              1386.1219
 Red. masses --      1.2790                 1.2646                 1.2681
 Frc consts  --      1.4281                 1.4270                 1.4355
 IR Inten    --     10.2539                 2.0864                10.2430

                     88                     89                     90
                      A                      A                      A
 Frequencies --   1388.3972              1390.4090              1393.9988
 Red. masses --      1.2392                 1.2670                 1.2435
 Frc consts  --      1.4074                 1.4431                 1.4237
 IR Inten    --     20.2539                 2.1173                 9.9003

                     91                     92                     93
                      A                      A                      A
 Frequencies --   1399.2488              1401.9646              1465.1478
 Red. masses --      1.2310                 1.2224                 1.0453
 Frc consts  --      1.4200                 1.4156                 1.3221
 IR Inten    --     10.6999                 7.2828                 2.7293

                     94                     95                     96
                      A                      A                      A
 Frequencies --   1466.5474              1468.0560              1468.9402
 Red. masses --      1.0471                 1.0420                 1.0432
 Frc consts  --      1.3269                 1.3231                 1.3263
 IR Inten    --      2.5799                 1.4369                 4.6603

                     97                     98                     99
                      A                      A                      A
 Frequencies --   1472.7888              1477.4887              1480.0998
 Red. masses --      1.0487                 1.0469                 1.0476
 Frc consts  --      1.3402                 1.3465                 1.3521
 IR Inten    --      2.4702                 5.7817                 4.3346

                    100                    101                    102
                      A                      A                      A
 Frequencies --   1481.7495              1484.1383              1485.6445
 Red. masses --      1.0485                 1.0480                 1.0496
 Frc consts  --      1.3563                 1.3601                 1.3649
 IR Inten    --      0.8416                 1.9742                 1.5376

                    103                    104                    105
                      A                      A                      A
 Frequencies --   1489.0045              1490.7388              1492.7085
 Red. masses --      1.0455                 1.0486                 1.0463
 Frc consts  --      1.3657                 1.3729                 1.3736
 IR Inten    --      3.7397                 2.5612                 9.3469

                    106                    107                    108
                      A                      A                      A
 Frequencies --   1493.1818              1495.3459              1498.9218
 Red. masses --      1.0478                 1.0500                 1.0454
 Frc consts  --      1.3764                 1.3833                 1.3839
 IR Inten    --     14.2196                 0.5452                10.4825

                    109                    110                    111
                      A                      A                      A
 Frequencies --   1499.5402              1503.9048              2932.0579
 Red. masses --      1.0462                 1.0499                 1.0817
 Frc consts  --      1.3861                 1.3991                 5.4790
 IR Inten    --      1.3965                 7.1790                14.6958

                    112                    113                    114
                      A                      A                      A
 Frequencies --   2936.0504              2938.8767              2955.1095
 Red. masses --      1.0806                 1.0804                 1.0837
 Frc consts  --      5.4883                 5.4978                 5.5758
 IR Inten    --     16.3362                 4.0846                27.2603

                    115                    116                    117
                      A                      A                      A
 Frequencies --   2972.9288              2973.9497              2975.9509
 Red. masses --      1.0354                 1.0369                 1.0774
 Frc consts  --      5.3918                 5.4030                 5.6218
 IR Inten    --     31.0416                27.6970                 8.9024

                    118                    119                    120
                      A                      A                      A
 Frequencies --   2977.5111              2978.8401              2979.4374
 Red. masses --      1.0608                 1.0605                 1.0466
 Frc consts  --      5.5410                 5.5445                 5.4739
 IR Inten    --      4.6357                 8.9183                 9.3158

                    121                    122                    123
                      A                      A                      A
 Frequencies --   2980.3483              2983.5191              2985.5850
 Red. masses --      1.0456                 1.0473                 1.0405
 Frc consts  --      5.4718                 5.4924                 5.4647
 IR Inten    --     17.7129                22.9809                21.6248

                    124                    125                    126
                      A                      A                      A
 Frequencies --   2986.0217              2987.1643              2989.2120
 Red. masses --      1.0408                 1.0486                 1.0426
 Frc consts  --      5.4677                 5.5130                 5.4889
 IR Inten    --     15.9116                19.4924                86.3052

                    127                    128                    129
                      A                      A                      A
 Frequencies --   3043.5598              3045.0332              3048.4023
 Red. masses --      1.1014                 1.1013                 1.1016
 Frc consts  --      6.0114                 6.0165                 6.0315
 IR Inten    --     10.9764                 3.7494                28.8538

                    130                    131                    132
                      A                      A                      A
 Frequencies --   3049.0221              3050.7829              3051.3447
 Red. masses --      1.1018                 1.1005                 1.1005
 Frc consts  --      6.0350                 6.0347                 6.0369
 IR Inten    --     29.6978                68.4148                43.4480

                    133                    134                    135
                      A                      A                      A
 Frequencies --   3052.0134              3052.9779              3054.2589
 Red. masses --      1.1003                 1.0990                 1.0995
 Frc consts  --      6.0385                 6.0351                 6.0432
 IR Inten    --     19.7652                13.0563                59.3110

                    136                    137                    138
                      A                      A                      A
 Frequencies --   3054.5681              3055.3138              3055.8735
 Red. masses --      1.1000                 1.0996                 1.0985
 Frc consts  --      6.0468                 6.0479                 6.0440
 IR Inten    --     35.8029                32.5895                22.0868

                    139                    140                    141
                      A                      A                      A
 Frequencies --   3056.1243              3063.0618              3065.6127
 Red. masses --      1.0971                 1.0997                 1.1000
 Frc consts  --      6.0372                 6.0792                 6.0908
 IR Inten    --     61.3981                50.7259                36.7520

                    142                    143                    144
                      A                      A                      A
 Frequencies --   3067.9148              3075.4791              3079.5265
 Red. masses --      1.0996                 1.0978                 1.0977
 Frc consts  --      6.0976                 6.1178                 6.1334
 IR Inten    --     42.0513                10.7073                30.1624

 - Thermochemistry -
 -------------------
 Temperature   298.150 Kelvin.  Pressure   1.00000 Atm.
 Atom     1 has atomic number  6 and mass  12.00000

 Molecular mass:   226.26605 amu.
 Principal axes and moments of inertia in atomic units:
                           1         2         3
     Eigenvalues --  1704.199578621.116458763.92646
           X            1.00000  -0.00077  -0.00132
           Y            0.00077   0.99999  -0.00484
           Z            0.00132   0.00484   0.99999
 This molecule is an asymmetric top.
 Rotational symmetry number  1.
 Warning -- assumption of classical behavior for rotation
           may cause significant error
 Rotational temperatures (Kelvin)      0.05082     0.01005     0.00988
 Rotational constants (GHZ):           1.05900     0.20934     0.20593
 Zero-point vibrational energy    1215689.5 (Joules/Mol)
                                  290.55677 (Kcal/Mol)
 Warning -- explicit consideration of  36 degrees of freedom as
           vibrations may cause significant error
 Vibrational temperatures:     39.37    47.05    76.91    91.37   125.42
          (Kelvin)            150.02   182.63   239.50   261.68   286.79
                              301.31   311.55   318.03   332.23   338.18
                              355.23   368.28   376.31   390.11   402.17
                              418.62   423.32   448.20   461.27   484.30
                              539.28   567.26   575.44   589.18   620.77
                              660.63   717.52   730.59   788.96   812.53
                              860.79  1076.32  1086.10  1127.53  1167.66
                             1216.79  1260.25  1299.02  1302.12  1308.20
                             1320.34  1359.84  1363.87  1365.27  1370.44
                             1389.37  1402.83  1419.86  1427.44  1452.49
                             1469.82  1500.75  1525.88  1550.15  1570.12
                             1618.97  1628.70  1630.07  1651.56  1667.57
                             1672.11  1684.31  1702.22  1706.86  1787.09
                             1811.26  1847.42  1850.20  1862.72  1880.07
                             1896.42  1907.78  1921.39  1930.05  1938.78
                             1942.45  1947.69  1950.84  1978.93  1980.61
                             1991.09  1994.32  1997.59  2000.49  2005.65
                             2013.21  2017.11  2108.02  2110.03  2112.21
                             2113.48  2119.01  2125.78  2129.53  2131.91
                             2135.34  2137.51  2142.35  2144.84  2147.67
                             2148.36  2151.47  2156.61  2157.50  2163.78
                             4218.58  4224.32  4228.39  4251.74  4277.38
                             4278.85  4281.73  4283.97  4285.89  4286.75
                             4288.06  4292.62  4295.59  4296.22  4297.86
                             4300.81  4379.00  4381.12  4385.97  4386.86
                             4389.40  4390.20  4391.17  4392.55  4394.40
                             4394.84  4395.92  4396.72  4397.08  4407.06
                             4410.73  4414.05  4424.93  4430.75

 Zero-point correction=                           0.463032 (Hartree/Particle)
 Thermal correction to Energy=                    0.484670
 Thermal correction to Enthalpy=                  0.485614
 Thermal correction to Gibbs Free Energy=         0.414104
 Sum of electronic and zero-point Energies=           -628.795391
 Sum of electronic and thermal Energies=              -628.773753
 Sum of electronic and thermal Enthalpies=            -628.772809
 Sum of electronic and thermal Free Energies=         -628.844319

                     E (Thermal)             CV                S
                      KCal/Mol        Cal/Mol-Kelvin    Cal/Mol-Kelvin
 Total                  304.135             83.420            150.505
 Electronic               0.000              0.000              0.000
 Translational            0.889              2.981             42.152
 Rotational               0.889              2.981             33.220
 Vibrational            302.357             77.458             75.133
 Vibration     1          0.593              1.984              6.012
 Vibration     2          0.594              1.983              5.658
 Vibration     3          0.596              1.976              4.685
 Vibration     4          0.597              1.972              4.345
 Vibration     5          0.601              1.958              3.723
 Vibration     6          0.605              1.946              3.373
 Vibration     7          0.611              1.926              2.992
 Vibration     8          0.624              1.884              2.475
 Vibration     9          0.630              1.864              2.309
 Vibration    10          0.637              1.841              2.139
 Vibration    11          0.642              1.826              2.049
 Vibration    12          0.645              1.816              1.988
 Vibration    13          0.648              1.809              1.951
 Vibration    14          0.653              1.794              1.872
 Vibration    15          0.655              1.787              1.840
 Vibration    16          0.661              1.768              1.753
 Vibration    17          0.666              1.753              1.689
 Vibration    18          0.669              1.743              1.651
 Vibration    19          0.675              1.726              1.589
 Vibration    20          0.680              1.711              1.537
 Vibration    21          0.687              1.691              1.468
 Vibration    22          0.689              1.685              1.450
 Vibration    23          0.700              1.652              1.354
 Vibration    24          0.706              1.634              1.307
 Vibration    25          0.717              1.602              1.228
 Vibration    26          0.746              1.524              1.060
 Vibration    27          0.761              1.482              0.984
 Vibration    28          0.766              1.470              0.963
 Vibration    29          0.774              1.450              0.928
 Vibration    30          0.792              1.402              0.854
 Vibration    31          0.817              1.341              0.769
 Vibration    32          0.854              1.253              0.661
 Vibration    33          0.863              1.233              0.639
 Vibration    34          0.904              1.143              0.548
 Vibration    35          0.921              1.108              0.514
 Vibration    36          0.956              1.035              0.453

                           ! Non-Optimized Parameters !
 Normal termination of Gaussian 16 at Tue Mar 22 13:38:57 2022.
