 Gaussian 16, Revision B.01,
 Gaussian 16:  EM64L-G16RevB.01 20-Dec-2017

 ------------------------------------------------
 #N PBEPBE/6-31+G(d,p) OPT FREQ Geom=Connectivity
 ------------------------------------------------

 ----------
 C8H7O3N2Cl
 ----------
 Symbolic Z-matrix:
 Charge =  0 Multiplicity = 1

 SCF Done:  E(RPBE-PBE) =  -1103.48058263     A.U. after   19 cycles
 SCF Done:  E(RPBE-PBE) =  -1103.48121135     A.U. after   14 cycles
 SCF Done:  E(RPBE-PBE) =  -1103.48093685     A.U. after   13 cycles
 SCF Done:  E(RPBE-PBE) =  -1103.48101729     A.U. after   13 cycles
 SCF Done:  E(RPBE-PBE) =  -1103.48122416     A.U. after   13 cycles
 SCF Done:  E(RPBE-PBE) =  -1103.48130416     A.U. after   13 cycles
 SCF Done:  E(RPBE-PBE) =  -1103.48145264     A.U. after   16 cycles
 SCF Done:  E(RPBE-PBE) =  -1103.48181916     A.U. after   17 cycles
 SCF Done:  E(RPBE-PBE) =  -1103.48181107     A.U. after   13 cycles
 SCF Done:  E(RPBE-PBE) =  -1103.48203382     A.U. after   15 cycles
 SCF Done:  E(RPBE-PBE) =  -1103.48912342     A.U. after   14 cycles
 SCF Done:  E(RPBE-PBE) =  -1103.48993084     A.U. after   14 cycles
 SCF Done:  E(RPBE-PBE) =  -1103.49025227     A.U. after   16 cycles
 SCF Done:  E(RPBE-PBE) =  -1103.49034366     A.U. after   13 cycles
 SCF Done:  E(RPBE-PBE) =  -1103.49042983     A.U. after   13 cycles
 SCF Done:  E(RPBE-PBE) =  -1103.49044415     A.U. after   12 cycles
 SCF Done:  E(RPBE-PBE) =  -1103.49045041     A.U. after   11 cycles
 SCF Done:  E(RPBE-PBE) =  -1103.49045141     A.U. after   10 cycles
 SCF Done:  E(RPBE-PBE) =  -1103.49045154     A.U. after   10 cycles
 Optimization completed.
    -- Stationary point found.
 Normal termination of Gaussian 16 at Tue Nov  9 14:25:33 2021.

 ----------------------------------------------------------------------
 #N Geom=AllCheck Guess=TCheck SCRF=Check GenChk RPBEPBE/6-31+G(d,p) Fr
 eq
 ----------------------------------------------------------------------

 Structure from the checkpoint file:  "/scratch/webmo-4695/392/Gau-108890.chk"
 ----------
 C8H7O3N2Cl
 ----------
 Charge =  0 Multiplicity = 1

                         Standard orientation:
 ---------------------------------------------------------------------
 Center     Atomic      Atomic             Coordinates (Angstroms)
 Number     Number       Type             X           Y           Z
 ---------------------------------------------------------------------
      1          6           0       -3.964356   -0.570963   -0.000117
      2          6           0       -2.477562   -0.943911   -0.000160
      3          7           0       -1.578485    0.094702   -0.000356
      4          6           0       -0.174037    0.044454   -0.000226
      5          6           0        0.553770   -1.167796    0.000023
      6          6           0        1.950581   -1.130619    0.000128
      7          6           0        2.614894    0.103216   -0.000006
      8          6           0        1.907953    1.314827   -0.000276
      9          6           0        0.515135    1.280540   -0.000403
     10          1           0       -0.048864    2.219280   -0.000661
     11          1           0        2.456316    2.258797   -0.000390
     12          7           0        4.087388    0.132267    0.000137
     13          8           0        4.687509   -0.957211    0.000215
     14          8           0        4.642785    1.246089    0.000167
     15          1           0        2.535830   -2.052466    0.000315
     16          1           0        0.019325   -2.117631    0.000122
     17          1           0       -1.999518    1.027505   -0.000163
     18          8           0       -2.198144   -2.145603   -0.000050
     19         17           0       -4.369915    1.198707    0.000374
     20          1           0       -4.426132   -1.013251   -0.894456
     21          1           0       -4.426190   -1.013720    0.893962
 ---------------------------------------------------------------------

 SCF Done:  E(RPBE-PBE) =  -1103.49045154     A.U. after    1 cycles

 The electronic state is 1-A.
 Alpha  occ. eigenvalues -- -100.71744 -18.81632 -18.81624 -18.79551 -14.23650
 Alpha  occ. eigenvalues --  -14.09516 -10.04750 -10.00061  -9.99641  -9.97710
 Alpha  occ. eigenvalues --   -9.95058  -9.95010  -9.94747  -9.94086  -9.21331
 Alpha  occ. eigenvalues --   -7.03926  -7.02803  -7.02711  -1.13032  -0.99379
 Alpha  occ. eigenvalues --   -0.96868  -0.90675  -0.82524  -0.81330  -0.74614
 Alpha  occ. eigenvalues --   -0.71720  -0.68482  -0.64866  -0.60471  -0.57474
 Alpha  occ. eigenvalues --   -0.54493  -0.52686  -0.50358  -0.48301  -0.47039
 Alpha  occ. eigenvalues --   -0.46248  -0.46227  -0.43032  -0.42764  -0.41871
 Alpha  occ. eigenvalues --   -0.41082  -0.40311  -0.39752  -0.38464  -0.36015
 Alpha  occ. eigenvalues --   -0.34063  -0.31477  -0.31298  -0.29296  -0.28231
 Alpha  occ. eigenvalues --   -0.26803  -0.26543  -0.25090  -0.24738  -0.24000
 Alpha virt. eigenvalues --   -0.13253  -0.07665  -0.07427  -0.05509  -0.03204
 Alpha virt. eigenvalues --   -0.02695  -0.01310   0.00053   0.01460   0.01868
 Alpha virt. eigenvalues --    0.01924   0.02988   0.04007   0.04462   0.04888

 Mulliken charges:
               1
     1  C   -0.542679
     2  C    0.482801
     3  N   -0.169696
     4  C    0.015367
     5  C    0.811198
     6  C    0.000531
     7  C   -0.614640
     8  C    0.368660
     9  C   -1.111270
    10  H    0.143006
    11  H    0.183119
    12  N   -0.324216
    13  O    0.010701
    14  O    0.001138
    15  H    0.185261
    16  H    0.188205
    17  H    0.281598
    18  O   -0.418710
    19  Cl   0.008050
    20  H    0.250787
    21  H    0.250790
 Sum of Mulliken charges =  -0.00000

 Dipole moment (field-independent basis, Debye):
    X=             -5.5015    Y=              1.4723    Z=             -0.0009  Tot=              5.6951
 Quadrupole moment (field-independent basis, Debye-Ang):
   XX=           -110.4139   YY=            -89.3319   ZZ=            -87.9090
   XY=             -0.8302   XZ=              0.0005   YZ=             -0.0017

  Exact polarizability: 237.387   5.652 146.191   0.005  -0.004  72.768
 Approx polarizability: 412.051  14.163 354.931   0.015  -0.015 121.455

                      1                      2                      3
                      A                      A                      A
 Frequencies --     32.9274                49.7350                66.2210
 Red. masses --      8.7232                 7.9440                 5.0747
 Frc consts  --      0.0056                 0.0116                 0.0131
 IR Inten    --      0.9477                 2.2458                 0.4606

                      4                      5                      6
                      A                      A                      A
 Frequencies --     84.9441                87.5568               142.2555
 Red. masses --      3.3102                12.7214                 5.8564
 Frc consts  --      0.0141                 0.0575                 0.0698
 IR Inten    --     11.9704                 0.3540                 1.2694

                      7                      8                      9
                      A                      A                      A
 Frequencies --    159.5470               233.2851               307.0489
 Red. masses --     13.6112                 9.3837                 5.7068
 Frc consts  --      0.2041                 0.3009                 0.3170
 IR Inten    --      6.7649                 2.9868                 0.6105

                     10                     11                     12
                      A                      A                      A
 Frequencies --    315.3275               376.5850               409.1715
 Red. masses --      7.9654                 8.1591                 3.0828
 Frc consts  --      0.4666                 0.6817                 0.3041
 IR Inten    --      3.3966                13.1255                 0.0079

                     13                     14                     15
                      A                      A                      A
 Frequencies --    411.9823               484.5419               516.5379
 Red. masses --     11.6675                 2.8989                 7.4295
 Frc consts  --      1.1668                 0.4010                 1.1679
 IR Inten    --      4.1077                13.9804                 1.0811

                     16                     17                     18
                      A                      A                      A
 Frequencies --    533.1458               552.9926               619.1686
 Red. masses --      6.0039                 3.0207                 7.2050
 Frc consts  --      1.0055                 0.5443                 1.6274
 IR Inten    --      8.5795                 2.1056                 0.8091

                     19                     20                     21
                      A                      A                      A
 Frequencies --    654.7841               673.9269               683.3697
 Red. masses --      1.2557                 2.7751                 6.8987
 Frc consts  --      0.3172                 0.7426                 1.8982
 IR Inten    --     20.5456                30.9326                10.1835

                     22                     23                     24
                      A                      A                      A
 Frequencies --    722.8439               733.1210               803.7364
 Red. masses --      7.0584                 6.4459                 1.3400
 Frc consts  --      2.1729                 2.0412                 0.5100
 IR Inten    --     14.9771                84.0802                12.7362

                     25                     26                     27
                      A                      A                      A
 Frequencies --    816.2934               843.1096               859.1617
 Red. masses --      8.1452                 1.6083                 6.4573
 Frc consts  --      3.1977                 0.6736                 2.8084
 IR Inten    --     26.4592                43.5367                16.8383

                     28                     29                     30
                      A                      A                      A
 Frequencies --    897.7696               935.8735               945.5501
 Red. masses --      1.9279                 1.2921                 6.0195
 Frc consts  --      0.9155                 0.6668                 3.1709
 IR Inten    --      4.3998                 0.5279                 0.1293

                     31                     32                     33
                      A                      A                      A
 Frequencies --    961.7113               995.5418              1092.5520
 Red. masses --      1.3004                 2.7798                 2.4335
 Frc consts  --      0.7086                 1.6232                 1.7115
 IR Inten    --      0.0455                 0.0807               103.0654

                     34                     35                     36
                      A                      A                      A
 Frequencies --   1101.8233              1154.9743              1166.1143
 Red. masses --      1.2626                 1.0823                 1.2803
 Frc consts  --      0.9031                 0.8506                 1.0258
 IR Inten    --     20.1929                 0.0425                14.3177

                     37                     38                     39
                      A                      A                      A
 Frequencies --   1198.4864              1247.7431              1253.0510
 Red. masses --      3.1923                 1.5035                 1.6199
 Frc consts  --      2.7016                 1.3792                 1.4986
 IR Inten    --     52.1047                52.2392                31.4664

                     40                     41                     42
                      A                      A                      A
 Frequencies --   1278.0897              1316.0722              1375.9734
 Red. masses --      1.4308                11.1136                 6.8677
 Frc consts  --      1.3771                11.3414                 7.6609
 IR Inten    --     66.3804               607.8199                61.5241

                     43                     44                     45
                      A                      A                      A
 Frequencies --   1399.6394              1412.5918              1481.5085
 Red. masses --      1.1086                 3.9972                 2.4714
 Frc consts  --      1.2795                 4.6994                 3.1960
 IR Inten    --     12.4108                24.4096                12.5662

                     46                     47                     48
                      A                      A                      A
 Frequencies --   1516.7762              1541.7034              1604.4962
 Red. masses --      3.7084                 4.2020                 6.5136
 Frc consts  --      5.0267                 5.8845                 9.8799
 IR Inten    --    489.7350               320.4828               162.5425

                     49                     50                     51
                      A                      A                      A
 Frequencies --   1605.8422              1710.4376              3043.7960
 Red. masses --      6.1084                10.3449                 1.0575
 Frc consts  --      9.2808                17.8316                 5.7723
 IR Inten    --     23.4394               245.2822                 3.7282

                     52                     53                     54
                      A                      A                      A
 Frequencies --   3108.2867              3117.4720              3164.7188
 Red. masses --      1.1088                 1.0904                 1.0903
 Frc consts  --      6.3120                 6.2436                 6.4337
 IR Inten    --      0.8270                 6.7873                 2.9234

                     55                     56                     57
                      A                      A                      A
 Frequencies --   3168.8513              3184.5734              3457.0073
 Red. masses --      1.0927                 1.0937                 1.0767
 Frc consts  --      6.4649                 6.5352                 7.5816
 IR Inten    --      2.7827                 5.6488               116.1109

 - Thermochemistry -
 -------------------
 Temperature   298.150 Kelvin.  Pressure   1.00000 Atm.
 Atom     1 has atomic number  6 and mass  12.00000

 Molecular mass:   214.01452 amu.
 Principal axes and moments of inertia in atomic units:
                           1         2         3
     Eigenvalues --   979.005677887.601888855.09625
           X            0.99998   0.00629   0.00000
           Y           -0.00629   0.99998  -0.00001
           Z           -0.00000   0.00001   1.00000
 This molecule is an asymmetric top.
 Rotational symmetry number  1.
 Warning -- assumption of classical behavior for rotation
           may cause significant error
 Rotational temperatures (Kelvin)      0.08847     0.01098     0.00978
 Rotational constants (GHZ):           1.84344     0.22881     0.20381
 Zero-point vibrational energy     380486.3 (Joules/Mol)
                                   90.93842 (Kcal/Mol)
 Warning -- explicit consideration of  18 degrees of freedom as
           vibrations may cause significant error
 Vibrational temperatures:     47.38    71.56    95.28   122.22   125.97
          (Kelvin)            204.67   229.55   335.65   441.77   453.69
                              541.82   588.71   592.75   697.15   743.18
                              767.08   795.63   890.85   942.09   969.63
                              983.22  1040.01  1054.80  1156.40  1174.46
                             1213.05  1236.14  1291.69  1346.51  1360.44
                             1383.69  1432.36  1571.94  1585.28  1661.75
                             1677.78  1724.35  1795.22  1802.86  1838.89
                             1893.53  1979.72  2013.77  2032.40  2131.56
                             2182.30  2218.17  2308.51  2310.45  2460.94
                             4379.34  4472.13  4485.35  4553.32  4559.27
                             4581.89  4973.86

 Zero-point correction=                           0.144920 (Hartree/Particle)
 Thermal correction to Energy=                    0.157596
 Thermal correction to Enthalpy=                  0.158540
 Thermal correction to Gibbs Free Energy=         0.103499
 Sum of electronic and zero-point Energies=          -1103.345532
 Sum of electronic and thermal Energies=             -1103.332856
 Sum of electronic and thermal Enthalpies=           -1103.331911
 Sum of electronic and thermal Free Energies=        -1103.386953

                     E (Thermal)             CV                S
                      KCal/Mol        Cal/Mol-Kelvin    Cal/Mol-Kelvin
 Total                   98.893             46.303            115.844
 Electronic               0.000              0.000              0.000
 Translational            0.889              2.981             41.986
 Rotational               0.889              2.981             32.592
 Vibrational             97.116             40.341             41.266
 Vibration     1          0.594              1.983              5.645
 Vibration     2          0.595              1.978              4.828
 Vibration     3          0.598              1.970              4.263
 Vibration     4          0.601              1.960              3.773
 Vibration     5          0.601              1.958              3.714
 Vibration     6          0.616              1.911              2.773
 Vibration     7          0.621              1.892              2.555
 Vibration     8          0.654              1.790              1.854
 Vibration     9          0.697              1.660              1.378
 Vibration    10          0.703              1.644              1.334
 Vibration    11          0.747              1.520              1.053
 Vibration    12          0.774              1.450              0.930
 Vibration    13          0.776              1.444              0.920
 Vibration    14          0.841              1.284              0.698
 Vibration    15          0.872              1.213              0.618
 Vibration    16          0.888              1.177              0.580
 Vibration    17          0.908              1.133              0.538
 Vibration    18          0.979              0.991              0.418

 Optimization completed.
    -- Stationary point found.
 Normal termination of Gaussian 16 at Tue Nov  9 14:30:07 2021.
